<?xml version="1.0"?>
<VTKFile type="UnstructuredGrid"  version="0.1"  >
<UnstructuredGrid>
<Piece  NumberOfPoints="16808" NumberOfCells="31534">
<Points>
<DataArray  type="Float64"  NumberOfComponents="3"  format="ascii">0 12.7 0  0 0 0  0.2 0 0  0.2 12.7 0  0.2 6.35 0  0 6.35 0  0 3.175 0  0.2 3.175 0  0 9.524999999999999 0  0.2 9.524999999999999 0  0 11.1125 0  0.2 11.1125 0  0.2 1.5875 0  0 1.5875 0  0.2 4.762499999999999 0  0 4.762499999999999 0  0.2 7.937499999999999 0  0 7.937499999999999 0  0.2 10.31875 0  0 10.31875 0  0.2 11.90625 0  0 11.90625 0  0 5.556249999999999 0  0.2 5.556249999999999 0  0 0.79375 0  0.2 0.79375 0  0 2.38125 0  0.2 2.38125 0  0.2 7.143749999999999 0  0 7.143749999999999 0  0 8.731249999999999 0  0.2 8.731249999999999 0  0 3.96875 0  0.2 3.96875 0  0.2 11.509375 0  0 11.509375 0  0 10.715625 0  0.2 10.715625 0  0 7.540624999999999 0  0.2 7.540624999999999 0  0.2 2.778125 0  0 2.778125 0  0.2 5.159374999999999 0  0 5.159374999999999 0  0.2 5.953125 0  0 5.953125 0  0.2 8.334375 0  0 8.334375 0  0.2 0.396875 0  0 0.396875 0  0 1.190625 0  0.2 1.190625 0  0.2 3.571874999999999 0  0 3.571874999999999 0  0.2 4.365625 0  0 4.365625 0  0.2 1.984375 0  0 1.984375 0  0.2 6.746874999999999 0  0 6.746874999999999 0  0.2 9.128124999999999 0  0 9.128124999999999 0  0.2 9.921874999999998 0  0 9.921874999999998 0  0 12.303125 0  0.2 12.303125 0  0 11.7078125 0  0.2 11.7078125 0  0.2 10.5171875 0  0 10.5171875 0  0.2 8.135937499999999 0  0 8.135937499999999 0  0.2 5.754687499999999 0  0 5.754687499999999 0  0 5.3578125 0  0.2 5.3578125 0  0 7.739062499999999 0  0.2 7.739062499999999 0  0 3.770312499999999 0  0.2 3.770312499999999 0  0.2 1.3890625 0  0 1.3890625 0  0.2 2.579687499999999 0  0 2.579687499999999 0  0 2.9765625 0  0.2 2.9765625 0  0 4.1671875 0  0.2 4.1671875 0  0 0.1984375 0  0.2 0.1984375 0  0 0.5953124999999999 0  0.2 0.5953124999999999 0  0.2 1.7859375 0  0 1.7859375 0  0 2.1828125 0  0.2 2.1828125 0  0.2 0.9921874999999999 0  0 0.9921874999999999 0  0.2 12.1046875 0  0 12.1046875 0  0.2 12.5015625 0  0 12.5015625 0  0 9.723437499999999 0  0.2 9.723437499999999 0  0 8.9296875 0  0.2 8.9296875 0  0 9.326562499999998 0  0.2 9.326562499999998 0  0 6.548437499999999 0  0.2 6.548437499999999 0  0 6.945312499999999 0  0.2 6.945312499999999 0  0 3.3734375 0  0.2 3.3734375 0  0 8.532812499999999 0  0.2 8.532812499999999 0  0 6.1515625 0  0.2 6.1515625 0  0 4.564062499999999 0  0.2 4.564062499999999 0  0 4.960937499999999 0  0.2 4.960937499999999 0  0.2 7.342187499999999 0  0 7.342187499999999 0  0 10.1203125 0  0.2 10.1203125 0  0.2 10.9140625 0  0 10.9140625 0  0 11.3109375 0  0.2 11.3109375 0  0.1 10.81484375 0  0.1 12.00546875 0  0.1 5.85390625 0  0.1 8.235156249999999 0  0.1 8.632031249999999 0  0.1 8.83046875 0  0.1 9.425781249999998 0  0.1 9.624218749999999 0  0.1 10.21953125 0  0.1 10.41796875 0  0.1 10.61640625 0  0.1 11.60859375 0  0.1 11.80703125 0  0.1 11.41015625 0  0.1 5.258593749999999 0  0.1 7.639843749999999 0  0.1 12.7 0  0.1 4.067968749999999 0  0.1 2.87734375 0  0.09999999999999999 2.67890625 0  0.1 3.86953125 0  0.1 1.88515625 0  0.1 0.6945312499999999 0  0.1 1.28984375 0  0.1 1.48828125 0  0.1 2.08359375 0  0.1 0 0  0.1 0.29765625 0  0.1 0.8929687499999999 0  0.09999999999999999 1.09140625 0  0.1 0.4960937499999999 0  0.1 7.242968749999999 0  0.1 4.861718749999999 0  0.1 5.060156249999999 0  0.1 4.464843749999999 0  0.1 4.663281249999999 0  0.09999999999999999 3.47265625 0  0.1 6.846093749999999 0  0.1 7.044531249999999 0  0.1 6.449218749999999 0  0.1 6.647656249999999 0  0.09999999999999999 6.250781249999999 0  0.1 6.05234375 0  0.09999999999999996 1.68671875 0  0.1 4.266406249999999 0  0.1 3.07578125 0  0.09999999999999999 2.28203125 0  0.09999999999999996 2.48046875 0  0.1 3.671093749999999 0  0.1 3.27421875 0  0.09999999999999999 5.457031249999999 0  0.09999999999999996 5.65546875 0  0.09999999999999999 7.441406249999999 0  0.09999999999999999 7.838281249999999 0  0.09999999999999996 8.036718749999999 0  0.1 11.21171875 0  0.1 11.01328125 0  0.1 10.02109375 0  0.1 8.43359375 0  0.1 9.227343749999999 0  0.1 9.02890625 0  0.1 9.82265625 0  0.1 12.40234375 0  0.1 12.20390625 0  0.1 12.5755843996063 0  0 0.09921874999999999 0  0.2 0.09921874999999999 0  0.09999999999999999 0.148828125 0  0.09922180175781284 7.143749999999999 0  0 7.639843749999999 0  0.2 7.639843749999999 0  0 5.258593749999999 0  0.1007781982421872 5.159374999999999 0  0.2 5.258593749999999 0  0.09922180175781285 11.90625 0  0.09922180175781285 11.509375 0  0.1007781982421872 11.7078125 0  0 11.41015625 0  0 11.60859375 0  0.2 11.41015625 0  0.2 11.60859375 0  0.09922180175781285 10.715625 0  0.1007781982421872 10.5171875 0  0.1007781982421872 10.31875 0  0 10.41796875 0  0.2 10.41796875 0  0 10.21953125 0  0.2 10.21953125 0  0.1007781982421872 9.524999999999999 0  0 9.624218749999999 0  0.2 9.624218749999999 0  0 9.425781249999998 0  0.2 9.425781249999998 0  0.1007781982421872 5.953125 0  0.09922180175781285 8.135937499999999 0  0.1007781982421872 8.731249999999999 0  0 8.83046875 0  0.2 8.83046875 0  0 8.632031249999999 0  0.2 8.632031249999999 0  0.2 8.235156249999999 0  0 8.235156249999999 0  0.2 5.85390625 0  0 5.85390625 0  0 11.80703125 0  0 12.00546875 0  0.2 11.80703125 0  0.2 12.00546875 0  0 10.61640625 0  0 10.81484375 0  0.2 10.61640625 0  0.2 10.81484375 0  0.09922180175781287 5.556249999999999 0  0.1007781982421872 11.1125 0  0.09922180175781285 8.334375 0  0.09922180175781285 8.9296875 0  0.09922180175781285 9.723437499999999 0  0.2 12.60078125 0  0 12.60078125 0  0.1007781982421874 1.984375 0  0.1007781982421874 1.3890625 0  0 2.67890625 0  0 2.87734375 0  0.1007781982421874 2.5796875 0  0.2 2.67890625 0  0.2 2.87734375 0  0 3.86953125 0  0 4.067968749999999 0  0.1007781982421874 3.7703125 0  0.2 3.86953125 0  0.2 4.067968749999999 0  0.09922180175781263 2.9765625 0  0 2.08359375 0  0.2 2.08359375 0  0.2 1.48828125 0  0 1.48828125 0  0 1.28984375 0  0.2 1.28984375 0  0 0.6945312499999999 0  0.2 0.6945312499999999 0  0.2 1.88515625 0  0 1.88515625 0  0.09922180175781251 0.9921874999999999 0  0.1007781982421875 0.5953124999999999 0  0 0.29765625 0  0.2 0.29765625 0  0.1007781982421875 0.396875 0  0 0.4960937499999999 0  0.2 0.4960937499999999 0  0.2 1.09140625 0  0 1.09140625 0  0.1007781982421876 0.7937499999999998 0  0 0.8929687499999999 0  0.2 0.8929687499999999 0  0.1007781982421876 7.937499999999998 0  0 8.036718749999999 0  0.2 8.036718749999999 0  0 7.83828125 0  0.2 7.83828125 0  0.1007781982421876 7.739062499999999 0  0.09922180175781239 7.540624999999999 0  0.2 7.441406249999998 0  0.09922180175781239 7.3421875 0  0 7.441406249999998 0  0 5.655468749999999 0  0.09922180175781239 5.754687499999999 0  0.2 5.655468749999999 0  0 5.45703125 0  0.2 5.45703125 0  0.1007781982421876 5.3578125 0  0.1007781982421876 3.175 0  0.09922180175781241 3.571874999999999 0  0 3.671093749999999 0  0.2 3.671093749999999 0  0.1007781982421876 2.38125 0  0 2.48046875 0  0.2 2.48046875 0  0 2.28203125 0  0.2 2.28203125 0  0.1007781982421876 2.1828125 0  0 3.07578125 0  0.09922180175781242 1.5875 0  0 1.68671875 0  0.09922180175781239 1.7859375 0  0.2 1.68671875 0  0 6.05234375 0  0 6.250781249999999 0  0 6.44921875 0  0.2 6.05234375 0  0.2 6.250781249999999 0  0.1007781982421876 6.349999999999999 0  0.2 6.44921875 0  0.1007781982421876 6.548437499999999 0  0.09922180175781242 6.746874999999999 0  0.1007781982421876 6.945312499999998 0  0 6.647656249999999 0  0 6.84609375 0  0.2 6.647656249999999 0  0.2 6.84609375 0  0 3.27421875 0  0 3.47265625 0  0.2 3.07578125 0  0.2 3.27421875 0  0.1007781982421876 3.3734375 0  0.2 3.47265625 0  0.09922180175781244 4.167187499999999 0  0 4.266406249999999 0  0 4.46484375 0  0.2 4.266406249999999 0  0.1007781982421876 4.365625 0  0.2 4.46484375 0  0 5.060156249999999 0  0.2 5.060156249999999 0  0.1007781982421876 4.564062499999999 0  0.09922180175781242 4.762499999999999 0  0.1007781982421876 4.960937499999998 0  0 4.663281249999999 0  0 4.86171875 0  0.2 4.663281249999999 0  0.2 4.86171875 0  0.2 7.044531249999999 0  0.2 7.242968749999999 0  0 7.044531249999999 0  0 7.242968749999999 0  0.09922180175781239 1.190625 0  0.09922180175781241 3.96875 0  0.09922180175781241 2.778125 0  0.09922180175781195 12.303125 0  0.100778198242188 12.1046875 0  0 12.20390625 0  0 12.40234375 0  0.2 12.20390625 0  0.2 12.40234375 0  0 9.028906249999999 0  0 9.227343749999999 0  0.09922180175781198 9.128125000000001 0  0.09922180175781198 9.3265625 0  0.2 9.028906249999999 0  0.2 9.227343749999999 0  0 8.43359375 0  0.09922180175781198 8.5328125 0  0.2 8.43359375 0  0 9.822656249999998 0  0 10.02109375 0  0.09922180175781198 9.921875 0  0.09922180175781198 10.1203125 0  0.2 9.822656249999998 0  0.2 10.02109375 0  0.09922180175781196 10.9140625 0  0 11.01328125 0  0 11.21171875 0  0.09922180175781198 11.3109375 0  0.2 11.01328125 0  0.2 11.21171875 0  0.09922180175781198 6.1515625 0  0.08672180175781248 12.48896407480315 0  0.07461090087890626 0.2232421875 0  0.1253890991210938 0.0744140625 0  0.05038909912109379 4.3164077878937 0  0.1496109008789064 5.605467212106299 0  0.1496109008789064 8.0867202878937 0  0.05038909912109358 5.1101577878937 0  0.05038909912109338 4.514845287893699 0  0.05038909912109338 6.896095287893699 0  0.05038909912109338 6.499220287893699 0  0.05000000000000002 6.002734375 0  0.05000000000000002 3.819921874999999 0  0.1496109008789064 5.5070327878937 0  0.1499999999999996 7.391796874999998 0  0.05038909912109338 4.911720287893699 0  0.1496109008789069 9.971092212106297 0  0.1496109008789069 9.177342212106298 0  0.05038909912109314 12.0554702878937 0  0.149610900878906 12.2539077878937 0  0.05 12.7 0  0.1374999999999996 12.63779219980315 0  0.1496109008789064 9.772654712106299 0  0.1496109008789064 9.6742202878937 0  0.1496109008789064 8.978904712106299 0  0.1496109008789064 8.880470287893701 0  0.1496109008789064 8.383592212106299 0  0.1496109008789064 
[...]
<PointData  Scalars="sigma (Pa)"> 
<DataArray  type="Float64"  Name="sigma (Pa)"  format="ascii">4.7708257219365169e-02  4.6316836876737599e-02  -4.2103156713381391e-02  -4.6018942249460758e-02  -1.9589633035125453e-05  1.6582821345414811e-08  6.4927735257598577e-08  -5.9111759148730156e-07  5.2869108206159588e-07  3.0153670030794490e-07  -8.7170543251233049e-07  -3.4470565731852380e-06  3.4727787497740168e-07  -4.1327638953722608e-07  1.0100968640148874e-07  9.0155815302264363e-08  -5.1857855220158651e-06  -2.2625103639370340e-06  -6.2397826723714166e-08  -5.6604849133547596e-09  1.0287263432601534e-06  8.7054090534730396e-07  3.1842781863681462e-07  -2.4577961584844695e-04  -2.7821187696881599e-07  3.3978382937933524e-07  6.8495020848678678e-08  -5.3329647574794562e-07  -1.2663829736920995e-04  2.4040928203618817e-07  -1.0951001261418220e-06  -3.0900099209768769e-08  -1.7636355124056369e-06  -2.8594727799493862e-07  5.3719933611173979e-07  1.9791205042630961e-06  7.6452586903155044e-08  -1.4178275353221768e-08  1.1069376106018358e-05  -9.2255809759171116e-04  -2.4602112946217008e-07  -1.2860566493888623e-06  8.1741357089835009e-04  -1.9062897490939336e-05  -5.7986158868301757e-05  5.8338031026937960e-08  3.4172440447413607e-07  -3.2112935370378840e-07  8.6054065924336690e-08  -1.6762537753566068e-07  -2.2806785090695461e-07  -2.9851205781279290e-07  -5.5828629780899534e-08  6.3834887045991943e-07  -1.8470451906751765e-07  -8.0862041517103148e-08  -6.2677651377375603e-07  -7.6834611369605359e-08  3.4259523158153061e-05  5.9828604759026136e-10  1.9211038726038024e-08  3.1077426922955233e-07  4.5560367887654868e-08  5.9558688941350247e-07  4.4067741375504902e-07  2.0672848011400335e-06  4.9457703042919329e-07  -5.0379392392393044e-07  3.6157745381156679e-07  -1.2688879199489422e-06  -1.0135812614378657e-06  -3.1383132815426918e-06  -1.1894857415235795e-04  4.5040606036370242e-07  1.8652044363686780e-06  -8.6789647614366947e-04  -4.5895044013240757e-06  2.9655262498781124e-04  -3.0283726449732412e-07  6.4244050907220603e-07  -1.5688695428312085e-07  1.4241259798843502e-06  1.1308483775722515e-06  3.3156669955618120e-07  9.4059543832060468e-08  -1.0352980447100152e-07  -2.2209252736003883e-07  9.4562866731236787e-07  7.1556039340646144e-07  1.5220693884913917e-06  -2.6980815765536712e-07  2.3153665150130109e-07  -4.8582733472103248e-07  -1.1175069863470326e-07  9.5897524007904895e-07  -4.8025674344531580e-07  1.7753243673375892e-08  5.3319573670810507e-07  -3.6823571368448048e-08  2.2023825756968445e-07  -2.8693342632630121e-07  5.7813579541649315e-07  -8.4930464757771499e-08  5.1398907665453830e-07  5.5598891382890683e-07  3.7552574210198863e-07  2.6474316099116397e-07  -7.8675395026085402e-07  -5.6282374167322439e-08  -2.0065127228948302e-05  -1.7332964644895903e-07  -6.1996940651987001e-05  4.3927652082680922e-07  1.3985857234011879e-07  2.3320104757294710e-07  -5.0416603116437923e-07  1.1681415674644138e-07  2.3675830367630344e-05  -3.0275807062310092e-07  -1.5833592117847920e-06  -1.8734853421319689e-06  -5.7657667869336763e-06  -2.6105588380771771e-04  -4.6451566954051909e-07  2.9054592161275310e-07  -8.2693509628823442e-07  3.2500385674007390e-08  1.8473496943107830e-08  -1.6710206024092435e-06  4.3011825430524988e-07  -6.2391167403816854e-07  1.8386613569753259e-07  -2.2132931154503900e-05  -8.7270762117245838e-07  2.7867090596167806e-07  4.3988490364987988e-07  -9.9003653154381983e-07  2.5081093771467091e-08  -4.9982362578734784e-07  9.4606380041819150e-07  2.4009905167073881e-08  -5.6819765409582842e-07  2.1409323742381746e-07  -1.0724328659139803e-07  -1.0404349664733068e-03  -1.1353743577505611e-03  1.0378918142344237e-04  -1.0781912903746684e-06  2.8923040279495872e-07  -7.1141481523515343e-07  -7.6460486736746055e-08  1.2149815980539100e-07  -9.8949475393905793e-07  7.7636843311176297e-07  -5.3770339262761369e-07  -1.8426557889220775e-07  2.8053760134552755e-04  1.2609874774402618e-06  -6.0119131349585171e-07  1.0332103827991083e-06  -2.5354926951178174e-07  -5.3247190432069839e-05  -2.0424002175747582e-05  1.8129442360746209e-03  1.1666117226092978e-06  4.9132501112124731e-07  -1.2877537549748847e-06  -1.3333792405957204e-05  -2.4104231966010570e-05  -5.0086218646024118e-06  -8.3950127015189122e-06  -7.7964700840868854e-06  -1.2422446965065766e-05  -1.0347322780829514e-06  2.7281166166080987e-08  -5.6675289721212970e-07  1.0123327017052502e-07  9.4133284499335238e-08  4.6316408011493904e-07  1.5486770020874296e-06  -1.5247335226451647e-04  -4.5840407764164680e-05  -1.6269427662267890e-04  1.9454184054106241e-03  -1.8825064353983168e-05  4.3991763427504942e-07  -7.7394729518139184e-07  -7.4444353951722456e-07  2.0035549821030208e-07  -4.9620357017505115e-07  3.1263507075915474e-07  7.9123854816474241e-07  3.2034608724961951e-06  -9.9528752336632391e-08  -6.2221860105513543e-06  1.0225898587633133e-05  3.6649911027293603e-06  -4.5166825451629691e-06  -3.5351809266836704e-05  2.2812214641946623e-05  -1.5102400612772493e-03  -5.2053864028212609e-06  8.9161425780342199e-05  -1.3814433261175804e-03  -5.8634644435346158e-07  2.6690275187545759e-07  -2.6035994811757628e-07  -1.0656990578076263e-06  1.8917391095421770e-07  2.2520573734875000e-07  1.0001969289348515e-07  -1.3149315043544122e-06  3.2201939751235530e-07  -8.5039084731989987e-07  1.4813514933865607e-06  -3.2208027606820567e-07  -1.3012190754142516e-06  -4.8287535608499683e-07  1.4006810771035268e-06  -1.1178693803407669e-07  1.1409119431485174e-07  7.9081528881362193e-07  1.4716729037905172e-07  -1.6695028139907697e-05  -3.0647347515758198e-06  1.6252081523064259e-07  8.6903834992827468e-07  -8.4048570844725804e-07  2.0103327150309443e-07  -2.3451129907641971e-07  -5.0608480879099458e-07  -5.7937064797182414e-07  -8.1901418833141984e-05  4.4000745255956879e-08  -1.9813067796886599e-06  -3.0364727725009205e-07  5.6114256280022531e-07  -3.7801589498069668e-08  7.2396223470539557e-07  -1.4203001716357614e-06  4.9087556836820820e-08  3.0139862337802615e-08  -5.3567177046085912e-05  -2.2620240023818204e-07  -5.0637716606228318e-07  -3.2851717818767578e-07  -1.3332082170923895e-06  3.6400903052237488e-06  4.2523469024846714e-06  9.3139465681154108e-07  1.6245928363042792e-06  4.0853475350591084e-08  1.2507229510042228e-06  1.5178807326126313e-06  1.3157799273014915e-06  -7.2535219866851597e-09  2.8299740546640672e-07  -2.2634128299613935e-07  1.3939889647725797e-06  -8.6519156790795510e-08  -1.5373279749853830e-06  -1.4206434018221998e-07  -8.2138225412766013e-07  7.8803255133169676e-07  8.0766611735023248e-07  1.2533481238458769e-06  -3.3084490878824535e-07  3.6394435329640856e-08  -5.3722711235443628e-07  -4.1859794306902128e-07  4.0983761861989271e-07  -1.4407098172335303e-06  -3.2621993412723329e-07  5.2324963562424945e-08  -2.8842458239565341e-07  2.1013552630812884e-06  9.5685847690151308e-07  1.4770575367794293e-06  3.4152619633526557e-07  9.8085196422395872e-07  -2.8374247636853215e-08  7.2128399015224351e-07  6.1175890385041431e-07  -1.3194284564482471e-07  1.7053081360313415e-04  -2.5146469234524568e-07  1.9605402632317624e-07  -1.8618826282360835e-05  -4.7810291789656225e-04  7.8253479052530484e-05  -4.9993433644326772e-04  -4.8057635274068364e-04  -5.3750829114410752e-05  -4.8732476061448302e-07  -2.8057771032858615e-07  -3.3847681687475853e-05  -4.9449706531513068e-04  9.9563836570586092e-07  -4.4827272485898002e-04  -4.7839614768941974e-04  8.8757931142055630e-07  -5.5463175356134244e-07  5.2432796317896759e-07  -7.7967181714376504e-08  1.0089454075461000e-07  -6.7360382704607278e-07  5.1803636624272041e-07  -3.0908371238862166e-07  -2.5137555755313413e-10  8.2772908017312471e-07  -1.7015796314934981e-07  4.7099974961140687e-07  4.5205442216116541e-07  8.4122461564167947e-07  1.5809591446460259e-06  -1.3816071828745617e-07  -4.7476197269450231e-09  3.1212813037714142e-08  -4.1740529272259378e-05  -2.5273450649306453e-05  -5.5426417649138820e-06  -1.8293624702647389e-05  -5.6988750080870171e-06  -6.4735728005254693e-06  -1.8057222256308837e-05  8.2688766726265602e-08  1.0653896387910902e-08  -2.6041454206180737e-05  -4.5080744157823736e-05  -5.1961048352164978e-07  -2.4349509734705611e-07  3.5010284122651511e-07  4.0383342139507158e-07  3.5398581715049989e-07  9.3641319510172066e-07  4.1177744161477631e-08  2.0385282429829404e-06  2.3654449502289639e-07  -2.7669201166030074e-07  -2.3614052539999391e-07  7.3347891686153914e-07  -2.1008768643410547e-05  -3.6593838349311059e-04  1.7460947423770053e-06  -4.9979601438549114e-06  1.4477371253186465e-04  -3.8159729741408192e-07  -1.2563012574136193e-06  1.0732152387726427e-06  8.2271142341155193e-07  -8.7782292769724717e-05  8.0606225695836113e-04  1.6272232476470392e-07  -9.1393530032355805e-08  1.0837011856284545e-07  1.5499601609751930e-07  1.1906454418903329e-06  -6.5438293325387913e-07  9.6668089927822793e-07  -1.5643071566894307e-06  -2.7638573383456512e-06  -1.6592809465262168e-07  4.1034668334350230e-07  3.3712432816370645e-07  -7.5255494893169384e-07  -7.1766764649456727e-07  -1.0266571670896037e-07  4.6495197205813769e-07  8.4681445893702344e-07  -2.3467258272559459e-06  -4.5694995174806700e-07  2.4843765169658007e-07  4.4327497071652296e-07  -3.8295243790647699e-08  -4.9897929621000835e-07  3.7897209831735693e-08  1.3264666133146165e-07  1.7639781131320784e-06  -9.8089436398042136e-07  -2.3959016708850331e-06  -3.9158657295300797e-07  1.4087190657034310e-08  1.2105296607994255e-07  2.6901381634786624e-07  -6.3233913332874712e-06  -6.1574696032804288e-06  -4.3581030547096621e-06  8.5382947904692920e-05  1.3968683306029054e-06  -4.4561513874416051e-05  -6.4227189055928034e-06  5.1873651664745052e-04  4.1208084993411665e-07  -4.2593094473437464e-06  -1.3303091772454961e-06  -3.7473217379426292e-06  6.0900625415343943e-07  -1.9736234282405858e-04  -2.1440805435302520e-04  -3.3593590870300347e-07  8.6207035567351593e-07  -4.8436255345098160e-07  -3.8810014693265574e-07  1.5339813167273549e-07  8.2421841923989072e-03  -3.0108421688375154e-05  8.2722428959165051e-07  -2.2971973880180708e-07  -1.1861718484550199e-07  -1.0627132393449280e-06  3.0532884920317700e-07  -1.6079154601032686e-06  3.3472799452746675e-07  7.5187546081963247e-07  3.2076440472028798e-07  -1.2603141318912882e-06  -5.2858124014390225e-07  -4.2283306389424060e-08  -2.9042533976196810e-07  -4.7478492155179073e-06  -5.7014067859688172e-05  4.9229614522647268e-08  2.3041911651240895e-07  3.3577324298170203e-07  6.7684246378163110e-07  1.1297038489054631e-06  -8.0485614424583264e-07  -8.8502828441026951e-07  -1.2595466945742794e-06  -1.5938952309023944e-07  1.5421139930035161e-06  -3.5668533309383776e-07  3.0432812249186588e-07  -2.6399543591129871e-07  8.9830822845982701e-07  -1.4555839840291049e-07  3.5054062294405967e-07  -8.1201948867844352e-07  -3.2035084321744526e-04  -2.6842554186597384e-04  -1.2053252702729695e-03  -3.3916036084877721e-04  -1.0456900308300489e-06  -4.0678003928592532e-07  3.0335316966652120e-04  -6.7243889169592423e-07  -3.7224421927836140e-09  -9.4273517054198444e-05  -1.7122036214340373e-06  -6.1671003219950307e-05  -1.0594710546512495e-06  -2.0537445488452595e-05  -7.4334536477423276e-07  -1.0728539434360956e-06  8.2457775111436235e-07  7.3113274823900260e-07  -8.4077398740077146e-07  1.7660235300077977e-07  6.3063623364714025e-07  -2.6421578626138402e-07  4.4115038664501890e-07  7.1279878198364814e-03  1.8689420929385529e-07  1.3616855722264814e-06  2.5009876902056959e-07  6.2664066602459518e-07  5.1543589950790887e-07  -4.5979978932782235e-07  -1.4730978952417071e-07  4.7789746279388323e-07  1.8149802461570863e-07  -8.0205906962481479e-07  1.0041669604572568e-06  -5.0929313848745870e-07  -4.9193890037130703e-08  2.3589163139523181e-07  1.4369763077625790e-06  7.5007451591834212e-07  7.4980842854038730e-07  4.5188770396625711e-07  -6.1598832746818107e-07  -7.6457477781919504e-07  1.0288264261286641e-07  -1.2371681441411575e-06  -8.5177470439115100e-07  -5.5976827261071702e-07  2.7034611972674827e-07  5.8566602223998713e-08  6.6037263675691109e-07  -5.3583464679673100e-06  2.8686152859775925e-07  2.7976323214269291e-04  -1.7763921264068452e-06  -9.3080676470817930e-05  7.3832948458919580e-07  -1.3539899952460126e-06  -4.8642854471542285e-04  -1.9022717894627610e-05  -2.2625349680749825e-05  -3.4892854746223131e-05  -6.9445478514948978e-06  -2.4066421053419710e-05  -8.1500677770036359e-05  5.7249970145591914e-04  -6.5618720207925329e-07  -2.0726468114122922e-07  1.0852000961009154e-06  -1.4470257365142183e-06  -6.0078575711905856e-07  1.6477821577506127e-06  -1.4758493409741272e-06  7.0779598183065350e-07  9.7848397008079266e-07  -4.8825101463094290e-07  -3.3626136076610970e-08  1.1143697338317130e-06  -7.4039089457943876e-07  -1.1032618745537945e-05  -1.2627449891806544e-06  -8.5700646507633552e-07  -8.9147742193534272e-08  -2.9995843661738418e-05  -5.5798868647358162e-06  7.4313797098336030e-08  5.1097274074737737e-07  -4.6294780226638415e-07  1.6024192077691326e-06  3.4177271865498443e-08  -4.0425801389230531e-07  1.1251600618675427e-06  7.1029245154063285e-08  1.9094478868685001e-07  -4.1261927430709301e-05  -1.0850260346003797e-06  1.3436074356528079e-07  2.8411714732342138e-07  1.4978677496553520e-06  8.2053025146683942e-07  1.4303941142920779e-06  5.3450362542504446e-07  2.4403749566724658e-07  -1.7394523188991302e-07  -1.8016939290255857e-07  1.1305523729834993e-06  -1.6195432950387146e-03  4.8076866852183138e-03  -1.2863304386295600e-05  -7.2326413353785819e-06  -1.7283211618072982e-07  4.6854828738909404e-07  -2.5767903508906891e-07  -1.0698840180051990e-06  -5.5849145568404332e-06  -1.2482523143011192e-06  -2.4628740375719276e-06  -2.0196386544605788e-06  -7.4860578865913985e-06  -4.4212876372608790e-05  1.7308063819787497e-07  5.3275024327820435e-04  6.5388070142603765e-07  7.7443677831791863e-07  -1.3345173737508243e-05  -4.5204248351243299e-04  -1.1286571563698363e-03  -6.8586516402922103e-06  -1.1992278464632564e-05  -8.8599402396100595e-05  -2.7781470643366480e-04  -1.7729824359196764e-03  -4.8119281877452517e-07  6.2741691147343229e-07  2.1053530700932642e-07  8.9108276372499697e-07  5.2534967527300032e-03  -7.0821854089405803e-06  2.6703115163598195e-07  7.3659415062444013e-07  2.7700569891514660e-07  -4.6885648704082989e-07  3.1384577386346691e-07  7.5264705429824423e-07  4.7386995874823266e-08  -8.4772210705861531e-07  -7.7210620972581402e-07  4.3640493666493354e-07  5.4277074710413909e-07  -2.6153477411705052e-06  8.7067216570725146e-07  2.5499413291842807e-07  -6.9637626943049032e-07  -2.6708524126406187e-07  -2.8909797346929968e-07  -8.1370406525935542e-07  -2.1689278682707531e-05  -6.1790216171247879e-06  -5.2137461580795416e-07  -5.1372463665213909e-07  -4.1427133142433331e-07  -4.4489839145898546e-07  -1.7398182289795291e-06  6.7623320471884017e-07  -1.1580434327608799e-06  6.8376779477755674e-07  -2.8335235552964057e-07  -8.7853283441702876e-07  1.1787600593826244e-07  -4.0846104612075146e-07  -4.4169052999434997e-07  -5.3997630544513745e-07  8.3098016108070561e-07  1.1230843251467142e-06  6.2936707646771143e-07  4.0984175472198296e-07  6.6894581552729106e-07  -5.7204804272834784e-07  1.9836864864058936e-06  -1.6159237681041404e-07  -1.3035524656297897e-05  -1.8441025263938694e-06  -2.3702087077905809e-06  -3.8109226654860291e-07  -1.2134961723436282e-08  -8.5383619913064880e-06  3.2361057610518407e-07  -3.2586692537151882e-05  -1.1251815255930272e-05  -2.3749808183495969e-05  5.4514249819183575e-04  -5.8595297805180091e-07  -4.5018546807335968e-07  -3.8356175070707279e-07  1.5145191877578712e-07  6.6111440546094116e-08  -6.5361472343645101e-07  8.9846150278468895e-07  1.1099737037641658e-06  8.6096742504322766e-05  -1.3232169172096414e-04  -3.3736632290640327e-05  1.5553694560838072e-05  1.3167865247459280e-06  4.4752753004820735e-06  -1.3195760217334359e-06  7.8774286159865625e-06  3.2322503036604403e-05  -7.9018569961729297e-05  -6.7600953441059944e-03  -2.0496110717511444e-05  1.3734119493612231e-07  5.9398559519449612e-07  8.5585232942622427e-05  1.2196605370229474e-04  4.7547450311282444e-04  2.9075321331579113e-07  5.7327712746908311e-04  -1.2622526678259919e-06  -2.4773635939349196e-07  -7.4571185959532897e-03  2.1663276164410128e-07  -5.3585178940422277e-08  -9.5611005540068448e-07  -1.0161939299051614e-06  -1.3502178318122067e-07  -2.7966225127546238e-07  8.3483526831398280e-07  1.5116855859461612e-06  -3.1789519847086822e-07  2.2169539393830215e-07  -1.6836855828749214e-07  -1.2344167605712328e-05  -3.6067992123038422e-06  9.5960731207788038e-07  -2.9263245542849824e-08  -3.6922411424434096e-04  -1.4762000942841025e-04  5.5336912910290339e-07  -3.8934027266888757e-07  7.4841939521118040e-07  -5.7415784114759962e-07  1.2652202379325547e-06  -9.7367489367328126e-07  4.4357248788191944e-07  -1.3326075824062408e-04  -6.3886328257209467e-07  2.8062053902187841e-07  -1.2886677443151896e-07  6.2108275565605294e-04  -2.6167933500906622e-05  -1.8223624886784131e-07  2.6975534377546025e-07  -2.5616803714800077e-07  1.2948915064725378e-08  7.4881614633804593e-07  4.2647324954277015e-08  -3.5436846797730086e-07  -6.6478113775708053e-07  5.0794048654692785e-07  -2.7332658292394424e-07  -2.8776162202607630e-04  -1.6959032021020229e-06  -1.3110816260125457e-05  -1.5638414715869018e-07  -1.0786121862337911e-06  -1.0134616310837532e-05  8.9134293902407104e-07  9.6256189110882789e-07  2.6102893543240341e-06  1.3051783303095767e-06  7.1305114294119753e-04  -8.0444597090748498e-06  -7.8421846615870137e-07  -6.6737833390489646e-06  -2.8218822715111562e-05  -1.5888620100025898e-07  -2.5639097814714760e-07  -4.0331762394269864e-07  -2.0152629277112246e-07  -4.6152063338248671e-07  -4.2136792426539060e-08  3.8626545514427905e-07  -8.4831275059888509e-07  -1.2105149947778634e-05  -1.4471873624077459e-05  -1.8990690855659146e-07  -6.9355309281971858e-07  3.2947659895813196e-07  -4.0636330155463067e-07  -1.0687555862139413e-03  -3.5331565230949425e-05  2.2974539934069755e-07  -5.0836097403569516e-06  -2.0546787865960229e-05  1.3975333450935261e-06  -4.6866824293181068e-07  -4.7905471535167483e-05  -8.2276465806162453e-04  -9.6717827662941476e-04  -7.5979800877398003e-04  7.6130303797428019e-07  -8.6673686209440025e-08  1.0652923301723362e-06  1.2541327273830356e-07  -4.7959132845100748e-08  1.2112119032888941e-07  -9.8234205453154619e-07  2.0583059727472035e-07  2.5494539630438766e-07  1.4745171631462649e-07  -9.7848025623652695e-07  2.6999718224100052e-07  1.7641069307337426e-06  7.1832472788202524e-07  4.1849273229315254e-07  -2.6805201014549690e-05  -1.8783408918519552e-05  2.4476061147776753e-07  2.4094466307102955e-07  -6.4760542004517451e-07  6.3400600281355498e-07  7.9437885977346902e-07  2.8803333778606802e-07  -1.6292509645484039e-06  -1.4336924782076192e-06  3.5563172770027769e-07  7.2071896526265943e-07  -7.4619041756830830e-07  -7.6944266675193896e-07  5.5751652704083406e-07  -7.0226984940200608e-09  -2.8921904699238162e-05  -9.2083540354804093e-05  1.9003537782983154e-03  -3.3306183864194261e-06  -1.1234648152072316e-06  -8.2162279053183312e-07  -5.1997933336796031e-07  -3.5157914010658211e-05  -1.7722138765858555e-06  8.3680870326324576e-07  -3.2518483690076902e-04  -9.7658980212511151e-06  -2.6256840933384681e-07  -1.1200928174675117e-08  8.3520088919288582e-07  -1.3325197915898842e-06  1.0345489379502894e-06  1.0513083764734244e-06  8.6080188118081657e-07  7.5011505712604137e-07  4.6498353121253234e-07  1.3950426129302975e-07  9.7559635167192013e-07  -8.9995141555047200e-07  6.0718963402162832e-07  -1.4925609315222809e-06  7.1567669579925398e-07  1.6557455178709884e-06  -1.8419602441289672e-07  5.6608805885829251e-07  6.4772975196642572e-07  2.4678470483303385e-06  -3.6087851592187651e-07  -2.2400204294256210e-06  -1.6766627617393849e-06  9.1656716284863599e-07  3.4616213853630770e-07  -3.4332689361236349e-08  -9.5393873899170157e-08  5.9016269388446975e-07  -7.22987687985566