<?xml version="1.0"?>
<VTKFile type="UnstructuredGrid"  version="0.1"  >
<UnstructuredGrid>
<Piece  NumberOfPoints="16808" NumberOfCells="31534">
<Points>
<DataArray  type="Float64"  NumberOfComponents="3"  format="ascii">0 12.7 0  0 0 0  0.2 0 0  0.2 12.7 0  0.2 6.35 0  0 6.35 0  0 3.175 0  0.2 3.175 0  0 9.524999999999999 0  0.2 9.524999999999999 0  0 11.1125 0  0.2 11.1125 0  0.2 1.5875 0  0 1.5875 0  0.2 4.762499999999999 0  0 4.762499999999999 0  0.2 7.937499999999999 0  0 7.937499999999999 0  0.2 10.31875 0  0 10.31875 0  0.2 11.90625 0  0 11.90625 0  0 5.556249999999999 0  0.2 5.556249999999999 0  0 0.79375 0  0.2 0.79375 0  0 2.38125 0  0.2 2.38125 0  0.2 7.143749999999999 0  0 7.143749999999999 0  0 8.731249999999999 0  0.2 8.731249999999999 0  0 3.96875 0  0.2 3.96875 0  0.2 11.509375 0  0 11.509375 0  0 10.715625 0  0.2 10.715625 0  0 7.540624999999999 0  0.2 7.540624999999999 0  0.2 2.778125 0  0 2.778125 0  0.2 5.159374999999999 0  0 5.159374999999999 0  0.2 5.953125 0  0 5.953125 0  0.2 8.334375 0  0 8.334375 0  0.2 0.396875 0  0 0.396875 0  0 1.190625 0  0.2 1.190625 0  0.2 3.571874999999999 0  0 3.571874999999999 0  0.2 4.365625 0  0 4.365625 0  0.2 1.984375 0  0 1.984375 0  0.2 6.746874999999999 0  0 6.746874999999999 0  0.2 9.128124999999999 0  0 9.128124999999999 0  0.2 9.921874999999998 0  0 9.921874999999998 0  0 12.303125 0  0.2 12.303125 0  0 11.7078125 0  0.2 11.7078125 0  0.2 10.5171875 0  0 10.5171875 0  0.2 8.135937499999999 0  0 8.135937499999999 0  0.2 5.754687499999999 0  0 5.754687499999999 0  0 5.3578125 0  0.2 5.3578125 0  0 7.739062499999999 0  0.2 7.739062499999999 0  0 3.770312499999999 0  0.2 3.770312499999999 0  0.2 1.3890625 0  0 1.3890625 0  0.2 2.579687499999999 0  0 2.579687499999999 0  0 2.9765625 0  0.2 2.9765625 0  0 4.1671875 0  0.2 4.1671875 0  0 0.1984375 0  0.2 0.1984375 0  0 0.5953124999999999 0  0.2 0.5953124999999999 0  0.2 1.7859375 0  0 1.7859375 0  0 2.1828125 0  0.2 2.1828125 0  0.2 0.9921874999999999 0  0 0.9921874999999999 0  0.2 12.1046875 0  0 12.1046875 0  0.2 12.5015625 0  0 12.5015625 0  0 9.723437499999999 0  0.2 9.723437499999999 0  0 8.9296875 0  0.2 8.9296875 0  0 9.326562499999998 0  0.2 9.326562499999998 0  0 6.548437499999999 0  0.2 6.548437499999999 0  0 6.945312499999999 0  0.2 6.945312499999999 0  0 3.3734375 0  0.2 3.3734375 0  0 8.532812499999999 0  0.2 8.532812499999999 0  0 6.1515625 0  0.2 6.1515625 0  0 4.564062499999999 0  0.2 4.564062499999999 0  0 4.960937499999999 0  0.2 4.960937499999999 0  0.2 7.342187499999999 0  0 7.342187499999999 0  0 10.1203125 0  0.2 10.1203125 0  0.2 10.9140625 0  0 10.9140625 0  0 11.3109375 0  0.2 11.3109375 0  0.1 10.81484375 0  0.1 12.00546875 0  0.1 5.85390625 0  0.1 8.235156249999999 0  0.1 8.632031249999999 0  0.1 8.83046875 0  0.1 9.425781249999998 0  0.1 9.624218749999999 0  0.1 10.21953125 0  0.1 10.41796875 0  0.1 10.61640625 0  0.1 11.60859375 0  0.1 11.80703125 0  0.1 11.41015625 0  0.1 5.258593749999999 0  0.1 7.639843749999999 0  0.1 12.7 0  0.1 4.067968749999999 0  0.1 2.87734375 0  0.09999999999999999 2.67890625 0  0.1 3.86953125 0  0.1 1.88515625 0  0.1 0.6945312499999999 0  0.1 1.28984375 0  0.1 1.48828125 0  0.1 2.08359375 0  0.1 0 0  0.1 0.29765625 0  0.1 0.8929687499999999 0  0.09999999999999999 1.09140625 0  0.1 0.4960937499999999 0  0.1 7.242968749999999 0  0.1 4.861718749999999 0  0.1 5.060156249999999 0  0.1 4.464843749999999 0  0.1 4.663281249999999 0  0.09999999999999999 3.47265625 0  0.1 6.846093749999999 0  0.1 7.044531249999999 0  0.1 6.449218749999999 0  0.1 6.647656249999999 0  0.09999999999999999 6.250781249999999 0  0.1 6.05234375 0  0.09999999999999996 1.68671875 0  0.1 4.266406249999999 0  0.1 3.07578125 0  0.09999999999999999 2.28203125 0  0.09999999999999996 2.48046875 0  0.1 3.671093749999999 0  0.1 3.27421875 0  0.09999999999999999 5.457031249999999 0  0.09999999999999996 5.65546875 0  0.09999999999999999 7.441406249999999 0  0.09999999999999999 7.838281249999999 0  0.09999999999999996 8.036718749999999 0  0.1 11.21171875 0  0.1 11.01328125 0  0.1 10.02109375 0  0.1 8.43359375 0  0.1 9.227343749999999 0  0.1 9.02890625 0  0.1 9.82265625 0  0.1 12.40234375 0  0.1 12.20390625 0  0.1 12.5755843996063 0  0 0.09921874999999999 0  0.2 0.09921874999999999 0  0.09999999999999999 0.148828125 0  0.09922180175781284 7.143749999999999 0  0 7.639843749999999 0  0.2 7.639843749999999 0  0 5.258593749999999 0  0.1007781982421872 5.159374999999999 0  0.2 5.258593749999999 0  0.09922180175781285 11.90625 0  0.09922180175781285 11.509375 0  0.1007781982421872 11.7078125 0  0 11.41015625 0  0 11.60859375 0  0.2 11.41015625 0  0.2 11.60859375 0  0.09922180175781285 10.715625 0  0.1007781982421872 10.5171875 0  0.1007781982421872 10.31875 0  0 10.41796875 0  0.2 10.41796875 0  0 10.21953125 0  0.2 10.21953125 0  0.1007781982421872 9.524999999999999 0  0 9.624218749999999 0  0.2 9.624218749999999 0  0 9.425781249999998 0  0.2 9.425781249999998 0  0.1007781982421872 5.953125 0  0.09922180175781285 8.135937499999999 0  0.1007781982421872 8.731249999999999 0  0 8.83046875 0  0.2 8.83046875 0  0 8.632031249999999 0  0.2 8.632031249999999 0  0.2 8.235156249999999 0  0 8.235156249999999 0  0.2 5.85390625 0  0 5.85390625 0  0 11.80703125 0  0 12.00546875 0  0.2 11.80703125 0  0.2 12.00546875 0  0 10.61640625 0  0 10.81484375 0  0.2 10.61640625 0  0.2 10.81484375 0  0.09922180175781287 5.556249999999999 0  0.1007781982421872 11.1125 0  0.09922180175781285 8.334375 0  0.09922180175781285 8.9296875 0  0.09922180175781285 9.723437499999999 0  0.2 12.60078125 0  0 12.60078125 0  0.1007781982421874 1.984375 0  0.1007781982421874 1.3890625 0  0 2.67890625 0  0 2.87734375 0  0.1007781982421874 2.5796875 0  0.2 2.67890625 0  0.2 2.87734375 0  0 3.86953125 0  0 4.067968749999999 0  0.1007781982421874 3.7703125 0  0.2 3.86953125 0  0.2 4.067968749999999 0  0.09922180175781263 2.9765625 0  0 2.08359375 0  0.2 2.08359375 0  0.2 1.48828125 0  0 1.48828125 0  0 1.28984375 0  0.2 1.28984375 0  0 0.6945312499999999 0  0.2 0.6945312499999999 0  0.2 1.88515625 0  0 1.88515625 0  0.09922180175781251 0.9921874999999999 0  0.1007781982421875 0.5953124999999999 0  0 0.29765625 0  0.2 0.29765625 0  0.1007781982421875 0.396875 0  0 0.4960937499999999 0  0.2 0.4960937499999999 0  0.2 1.09140625 0  0 1.09140625 0  0.1007781982421876 0.7937499999999998 0  0 0.8929687499999999 0  0.2 0.8929687499999999 0  0.1007781982421876 7.937499999999998 0  0 8.036718749999999 0  0.2 8.036718749999999 0  0 7.83828125 0  0.2 7.83828125 0  0.1007781982421876 7.739062499999999 0  0.09922180175781239 7.540624999999999 0  0.2 7.441406249999998 0  0.09922180175781239 7.3421875 0  0 7.441406249999998 0  0 5.655468749999999 0  0.09922180175781239 5.754687499999999 0  0.2 5.655468749999999 0  0 5.45703125 0  0.2 5.45703125 0  0.1007781982421876 5.3578125 0  0.1007781982421876 3.175 0  0.09922180175781241 3.571874999999999 0  0 3.671093749999999 0  0.2 3.671093749999999 0  0.1007781982421876 2.38125 0  0 2.48046875 0  0.2 2.48046875 0  0 2.28203125 0  0.2 2.28203125 0  0.1007781982421876 2.1828125 0  0 3.07578125 0  0.09922180175781242 1.5875 0  0 1.68671875 0  0.09922180175781239 1.7859375 0  0.2 1.68671875 0  0 6.05234375 0  0 6.250781249999999 0  0 6.44921875 0  0.2 6.05234375 0  0.2 6.250781249999999 0  0.1007781982421876 6.349999999999999 0  0.2 6.44921875 0  0.1007781982421876 6.548437499999999 0  0.09922180175781242 6.746874999999999 0  0.1007781982421876 6.945312499999998 0  0 6.647656249999999 0  0 6.84609375 0  0.2 6.647656249999999 0  0.2 6.84609375 0  0 3.27421875 0  0 3.47265625 0  0.2 3.07578125 0  0.2 3.27421875 0  0.1007781982421876 3.3734375 0  0.2 3.47265625 0  0.09922180175781244 4.167187499999999 0  0 4.266406249999999 0  0 4.46484375 0  0.2 4.266406249999999 0  0.1007781982421876 4.365625 0  0.2 4.46484375 0  0 5.060156249999999 0  0.2 5.060156249999999 0  0.1007781982421876 4.564062499999999 0  0.09922180175781242 4.762499999999999 0  0.1007781982421876 4.960937499999998 0  0 4.663281249999999 0  0 4.86171875 0  0.2 4.663281249999999 0  0.2 4.86171875 0  0.2 7.044531249999999 0  0.2 7.242968749999999 0  0 7.044531249999999 0  0 7.242968749999999 0  0.09922180175781239 1.190625 0  0.09922180175781241 3.96875 0  0.09922180175781241 2.778125 0  0.09922180175781195 12.303125 0  0.100778198242188 12.1046875 0  0 12.20390625 0  0 12.40234375 0  0.2 12.20390625 0  0.2 12.40234375 0  0 9.028906249999999 0  0 9.227343749999999 0  0.09922180175781198 9.128125000000001 0  0.09922180175781198 9.3265625 0  0.2 9.028906249999999 0  0.2 9.227343749999999 0  0 8.43359375 0  0.09922180175781198 8.5328125 0  0.2 8.43359375 0  0 9.822656249999998 0  0 10.02109375 0  0.09922180175781198 9.921875 0  0.09922180175781198 10.1203125 0  0.2 9.822656249999998 0  0.2 10.02109375 0  0.09922180175781196 10.9140625 0  0 11.01328125 0  0 11.21171875 0  0.09922180175781198 11.3109375 0  0.2 11.01328125 0  0.2 11.21171875 0  0.09922180175781198 6.1515625 0  0.08672180175781248 12.48896407480315 0  0.07461090087890626 0.2232421875 0  0.1253890991210938 0.0744140625 0  0.05038909912109379 4.3164077878937 0  0.1496109008789064 5.605467212106299 0  0.1496109008789064 8.0867202878937 0  0.05038909912109358 5.1101577878937 0  0.05038909912109338 4.514845287893699 0  0.05038909912109338 6.896095287893699 0  0.05038909912109338 6.499220287893699 0  0.05000000000000002 6.002734375 0  0.05000000000000002 3.819921874999999 0  0.1496109008789064 5.5070327878937 0  0.1499999999999996 7.391796874999998 0  0.05038909912109338 4.911720287893699 0  0.1496109008789069 9.971092212106297 0  0.1496109008789069 9.177342212106298 0  0.05038909912109314 12.0554702878937 0  0.149610900878906 12.2539077878937 0  0.05 12.7 0  0.1374999999999996 12.63779219980315 0  0.1496109008789064 9.772654712106299 0  0.1496109008789064 9.6742202878937 0  0.1496109008789064 8.978904712106299 0  0.1496109008789064 8.880470287893701 0  0.1496109008789064 8.383592212106299 0  0.1496109008789064 
[...]
<PointData  Scalars="sigma (Pa)"> 
<DataArray  type="Float64"  Name="sigma (Pa)"  format="ascii">4.7690024929734780e-02  4.6299136335285575e-02  -4.2087066480952090e-02  -4.6001355552056006e-02  -1.9582146793706358e-05  1.6575777052214063e-08  6.4902248410014101e-08  -5.9089114413787853e-07  5.2848964106772940e-07  3.0142110822161453e-07  -8.7137253381613682e-07  -3.4457392552974349e-06  3.4714491908773940e-07  -4.1311846857112984e-07  1.0097076000904536e-07  9.0121503389563596e-08  -5.1838038441946967e-06  -2.2616462332884494e-06  -6.2373836986186975e-08  -5.6581478052197736e-09  1.0283332065204108e-06  8.7020819933137278e-07  3.1830611941990637e-07  -2.4568568762193556e-04  -2.7810551003040368e-07  3.3965397986403431e-07  6.8469115174694202e-08  -5.3309247356990149e-07  -1.2658989909045807e-04  2.4031682013087885e-07  -1.0946816893373767e-06  -3.0887898849783454e-08  -1.7629608318311746e-06  -2.8583826552420315e-07  5.3699411124354667e-07  1.9783643020555868e-06  7.6423523559793540e-08  -1.4172707936836828e-08  1.1065145573384183e-05  -9.2220553043040831e-04  -2.4592743428308094e-07  -1.2855650530089004e-06  8.1710118642317896e-04  -1.9055611585391698e-05  -5.7963997833290821e-05  5.8315439860354262e-08  3.4159347120625509e-07  -3.2100559199557741e-07  8.6021187970346985e-08  -1.6756130389002592e-07  -2.2798071150973860e-07  -2.9839776867478544e-07  -5.5807473540748639e-08  6.3810478379556571e-07  -1.8463446588119755e-07  -8.0831275111994533e-08  -6.2653676605917670e-07  -7.6805359869023045e-08  3.4246429897879661e-05  5.9826019488558489e-10  1.9203067761155299e-08  3.1065603037563444e-07  4.5543167876275909e-08  5.9535934368578779e-07  4.4050900693077376e-07  2.0664947648675948e-06  4.9438809215229598e-07  -5.0360133850580003e-07  3.6143926127285732e-07  -1.2684029740430435e-06  -1.0131945124786349e-06  -3.1371141669703448e-06  -1.1890311548999585e-04  4.5023400216051649e-07  1.8644911434519804e-06  -8.6756479861656820e-04  -4.5877503397883927e-06  2.9643929279879445e-04  -3.0272219228511617e-07  6.4219470502662651e-07  -1.5682706140272395e-07  1.4235817607718883e-06  1.1304159997066905e-06  3.3143998505602594e-07  9.4023801547016923e-08  -1.0349040067269283e-07  -2.2200727854184786e-07  9.4526686599504746e-07  7.1528692869790313e-07  1.5214877138540796e-06  -2.6970504688389527e-07  2.3144816804359668e-07  -4.8564176307165342e-07  -1.1170807794944325e-07  9.5860908313648161e-07  -4.8007328235694183e-07  1.7746435623775026e-08  5.3299186542707968e-07  -3.6809543246000867e-08  2.2015407568035551e-07  -2.8682376893192289e-07  5.7791485308558928e-07  -8.4898025156867797e-08  5.1379246336662088e-07  5.5577696394577974e-07  3.7538192544377974e-07  2.6464164999886600e-07  -7.8645345047459174e-07  -5.6261003066967445e-08  -2.0057459279945694e-05  -1.7326335244849295e-07  -6.1973247021428443e-05  4.3910862098751409e-07  1.3980455180680133e-07  2.3311249205530192e-07  -5.0397411364903314e-07  1.1676960231511885e-07  2.3666781561089545e-05  -3.0264199470989317e-07  -1.5827541493243185e-06  -1.8727699353489433e-06  -5.7635636489348284e-06  -2.6095611829729114e-04  -4.6433731729827354e-07  2.9043482891065664e-07  -8.2661873259493903e-07  3.2488000242869823e-08  1.8466301853922625e-08  -1.6703818564410297e-06  4.2995385708607779e-07  -6.2367335768950692e-07  1.8379589544555278e-07  -2.2124471618398682e-05  -8.7237404437745744e-07  2.7856362764358898e-07  4.3971704999642247e-07  -9.8965769788700061e-07  2.5072324964722380e-08  -4.9963241548189833e-07  9.4570204936982393e-07  2.4000738353495893e-08  -5.6798051201894054e-07  2.1401134469583937e-07  -1.0720228648216325e-07  -1.0400373515991339e-03  -1.1349404609749922e-03  1.0374951712751508e-04  -1.0777795415794242e-06  2.8911995376565396e-07  -7.1114310706917871e-07  -7.6432086006074801e-08  1.2145203681211335e-07  -9.8911659435125168e-07  7.7607164822641872e-07  -5.3749793824974023e-07  -1.8419528348080733e-07  2.8043039049589573e-04  1.2605055756310116e-06  -6.0096154211678624e-07  1.0328155758789900e-06  -2.5345239142326986e-07  -5.3226841825417814e-05  -2.0416197209532920e-05  1.8122513979572884e-03  1.1661661909464720e-06  4.9113710055187209e-07  -1.2872617068879658e-06  -1.3328696911473500e-05  -2.4095020859012599e-05  -5.0067079270234979e-06  -8.3918035234649246e-06  -7.7934914364341559e-06  -1.2417698961229879e-05  -1.0343367366764031e-06  2.7270771646404978e-08  -5.6653605402121650e-07  1.0119459723092958e-07  9.4097298877444005e-08  4.6298727525514560e-07  1.5480846330107032e-06  -1.5241508295325601e-04  -4.5822888574173140e-05  -1.6263210094200883e-04  1.9446749407205344e-03  -1.8817869856104928e-05  4.3974947717971171e-07  -7.7365146569421806e-07  -7.4415916665230336e-07  2.0027942447101662e-07  -4.9601376392403719e-07  3.1251581792201412e-07  7.9093659368944066e-07  3.2022366319004312e-06  -9.9490729882752244e-08  -6.2198081268906215e-06  1.0221990634853134e-05  3.6635904814514906e-06  -4.5149564402362760e-06  -3.5338299250208068e-05  2.2803497252927034e-05  -1.5096629045891687e-03  -5.2033974324729146e-06  8.9127351648810157e-05  -1.3809153913322055e-03  -5.8612236329644057e-07  2.6680077160269997e-07  -2.6026040833950814e-07  -1.0652918035361748e-06  1.8910166747813994e-07  2.2511970886960904e-07  9.9981567645955087e-08  -1.3144290666519437e-06  3.2189640716021377e-07  -8.5006585479553052e-07  1.4807851090995085e-06  -3.2195698097094858e-07  -1.3007217454438784e-06  -4.8269105147912037e-07  1.4001461747123635e-06  -1.1174471732668660e-07  1.1404748795614095e-07  7.9051355033398722e-07  1.4711141960040695e-07  -1.6688647662728827e-05  -3.0635634700953446e-06  1.6245900268871925e-07  8.6870716701892229e-07  -8.4016497126244448e-07  2.0095696692739594e-07  -2.3442084813640455e-07  -5.0589106297122150e-07  -5.7914967581149630e-07  -8.1870118779694197e-05  4.3983871630074319e-08  -1.9805495980591751e-06  -3.0353129642547106e-07  5.6092816289831040e-07  -3.7787131772112067e-08  7.2368590122598950e-07  -1.4197574249520473e-06  4.9068834463258658e-08  3.0128567135225093e-08  -5.3546705778537398e-05  -2.2611597844193138e-07  -5.0618413898324778e-07  -3.2839158697508699e-07  -1.3326986717981580e-06  3.6386992007664086e-06  4.2507218147862562e-06  9.3103862340858242e-07  1.6239719256277498e-06  4.0837887232835889e-08  1.2502450680184366e-06  1.5173012532560062e-06  1.3152768853701600e-06  -7.2507387525905801e-09  2.8288900432336685e-07  -2.2625476003209062e-07  1.3934561375178705e-06  -8.6485884161141970e-08  -1.5367405496593091e-06  -1.4200946317111974e-07  -8.2106827012895955e-07  7.8773144766954422e-07  8.0735761528860835e-07  1.2528695395812762e-06  -3.3071841085691527e-07  3.6380459091289475e-08  -5.3702179123173896e-07  -4.1843796275333247e-07  4.0968047581308300e-07  -1.4401595629525110e-06  -3.2609531633654513e-07  5.2304959949014464e-08  -2.8831435812275561e-07  2.1005522047844712e-06  9.5649279785448905e-07  1.4764930517890453e-06  3.4139567914374760e-07  9.8047707122459747e-07  -2.8363422662934538e-08  7.2100836807214776e-07  6.1152521368331881e-07  -1.3189231061239504e-07  1.7046564340249509e-04  -2.5136843180491675e-07  1.9597918455836329e-07  -1.8611712065874572e-05  -4.7792020502651693e-04  7.8223573321919954e-05  -4.9974328017987147e-04  -4.8039269524723517e-04  -5.3730287759581661e-05  -4.8713864900093997e-07  -2.8047043223396003e-07  -3.3834745687516348e-05  -4.9430808675877090e-04  9.9525809194574187e-07  -4.4810141151522149e-04  -4.7821332282481382e-04  8.8724036542071062e-07  -5.5441993922159308e-07  5.2412720779490315e-07  -7.7936740869868586e-08  1.0085578655751078e-07  -6.7334646374887492e-07  5.1783847359853725e-07  -3.0896558972525606e-07  -2.5164709808865817e-10  8.2741282286957158e-07  -1.7009341325137622e-07  4.7081963005611938e-07  4.5188173450958120e-07  8.4090307401522213e-07  1.5803548545080606e-06  -1.3810849631638537e-07  -4.7460342045959124e-09  3.1200756608429441e-08  -4.1724577164522469e-05  -2.5263791610916122e-05  -5.5405238808020682e-06  -1.8286633156785337e-05  -5.6966976274177702e-06  -6.4710988513464432e-06  -1.8050320768443547e-05  8.2657467383149818e-08  1.0648967344789686e-08  -2.6031502037159375e-05  -4.5063516637734396e-05  -5.1941169627817348e-07  -2.4340259379569169e-07  3.4996934810793251e-07  4.0367941376189471e-07  3.5385044448831558e-07  9.3605510749445222e-07  4.1162258729924162e-08  2.0377491583737332e-06  2.3645503898386989e-07  -2.7658631443163151e-07  -2.3605045521665944e-07  7.3319969986413740e-07  -2.1000739890681165e-05  -3.6579853494367635e-04  1.7454274186557629e-06  -4.9960502145249084e-06  1.4471838601485499e-04  -3.8144956431611510e-07  -1.2558216141769805e-06  1.0728052029479456e-06  8.2239753379529851e-07  -8.7748745430769846e-05  8.0575420949407801e-04  1.6265935426328612e-07  -9.1359537897360568e-08  1.0832864865499236e-07  1.5493656844518210e-07  1.1901904832521568e-06  -6.5413286450110184e-07  9.6631145467653369e-07  -1.5637093306527684e-06  -2.7628010988124541e-06  -1.6586472829032949e-07  4.1018986397205991e-07  3.3699508170770128e-07  -7.5226716668248990e-07  -7.1739410505890988e-07  -1.0262657810074430e-07  4.6477458389845383e-07  8.4649055784747172e-07  -2.3458291572807375e-06  -4.5677543842536545e-07  2.4834307773766025e-07  4.4310598793320061e-07  -3.8280858272621510e-08  -4.9878878815125645e-07  3.7882974035606692e-08  1.3259563097360610e-07  1.7633040703027407e-06  -9.8051941343869846e-07  -2.3949861179043033e-06  -3.9143720102555565e-07  1.4081778153949294e-08  1.2100677518922986e-07  2.6891081861224600e-07  -6.3209758956257723e-06  -6.1551164497699906e-06  -4.3564375530851400e-06  8.5350317774506390e-05  1.3963346741552928e-06  -4.4544484116220709e-05  -6.4202642866962971e-06  5.1853827608583109e-04  4.1192352042941686e-07  -4.2576822852254403e-06  -1.3298013518627768e-06  -3.7458896494170896e-06  6.0877300195424360e-07  -1.9728691809560244e-04  -2.1432611529830070e-04  -3.3580679966890988e-07  8.6174108992464310e-07  -4.8417700759236824e-07  -3.8795184036199650e-07  1.5333950206040373e-07  8.2390343416573041e-03  -3.0096915389422172e-05  8.2690803484962423e-07  -2.2963208794123407e-07  -1.1857167669925127e-07  -1.0623070840495697e-06  3.0521241058789028e-07  -1.6073006237436389e-06  3.3459990109090273e-07  7.5158813558384836e-07  3.2064191681571566e-07  -1.2598321335189961e-06  -5.2837886312181496e-07  -4.2267141031244199e-08  -2.9031434822971719e-07  -4.7460355140808263e-06  -5.6992278608605722e-05  4.9211205010753406e-08  2.3033109267022659e-07  3.3564495547248846e-07  6.7658364376586990e-07  1.1292720426157878e-06  -8.0454914314861432e-07  -8.8468998949339339e-07  -1.2590653407778028e-06  -1.5932888069055412e-07  1.5415246577743060e-06  -3.5654910062574555e-07  3.0421172324034359e-07  -2.6389455712345969e-07  8.9796490652955545e-07  -1.4550280931427087e-07  3.5040667188027075e-07  -8.1170911506173030e-07  -3.2022841768137873e-04  -2.6832295952458304e-04  -1.2048646404787481e-03  -3.3903074680724889e-04  -1.0452904047761480e-06  -4.0662504923406699e-07  3.0323724052370955e-04  -6.7218212802544632e-07  -3.7207673568161384e-09  -9.4237488960509329e-05  -1.7115494101321451e-06  -6.1647435050775381e-05  -1.0590668762057802e-06  -2.0529596658405425e-05  -7.4306130977106094e-07  -1.0724441198838077e-06  8.2426261643081208e-07  7.3085307773259424e-07  -8.4045268524120887e-07  1.7653494890710191e-07  6.3039523642442355e-07  -2.6411479617524347e-07  4.4098179939162625e-07  7.1252637727646437e-03  1.8682278693497823e-07  1.3611651784404390e-06  2.5000310760315441e-07  6.2640118831904154e-07  5.1523893214516381e-07  -4.5962398020436869e-07  -1.4725339054742812e-07  4.7771478656412347e-07  1.8142864012582565e-07  -8.0175262250816754e-07  1.0037832774486348e-06  -5.0909847286531868e-07  -4.9175320996966075e-08  2.3580092888906250e-07  1.4364271770621192e-06  7.4978778020352056e-07  7.4952153622502274e-07  4.5171517199634329e-07  -6.1575301865343767e-07  -7.6428253207884298e-07  1.0284347261524100e-07  -1.2366950862974952e-06  -8.5144892582437644e-07  -5.5955474574951676e-07  2.7024305251963324e-07  5.8544404001834727e-08  6.6012045937264773e-07  -5.3562992240656904e-06  2.8675219223090257e-07  2.7965631735179603e-04  -1.7757129287679583e-06  -9.3045104383905776e-05  7.3804814288701407e-07  -1.3534716794821040e-06  -4.8624264999469843e-04  -1.9015448183656644e-05  -2.2616703076392249e-05  -3.4879519805969612e-05  -6.9418939255700738e-06  -2.4057224284347032e-05  -8.1469531453862528e-05  5.7228091362857610e-04  -6.5593646597294320e-07  -2.0718525245690733e-07  1.0847855297196867e-06  -1.4464727443471595e-06  -6.0055614981474615e-07  1.6471524988595889e-06  -1.4752849743383937e-06  7.0752546839300715e-07  9.7810990073017853e-07  -4.8806442739576075e-07  -3.3613296858403630e-08  1.1139437235370004e-06  -7.4010876441436591e-07  -1.1028402764285843e-05  -1.2622623036637010e-06  -8.5667874625152217e-07  -8.9113798860074788e-08  -2.9984380379282461e-05  -5.5777541089706254e-06  7.4285044863479383e-08  5.1077681084560506e-07  -4.6277119334775143e-07  1.6018065515565341e-06  3.4164010878666197e-08  -4.0410341814787886e-07  1.1247300921640812e-06  7.1002085730537985e-08  1.9087173606097249e-07  -4.1246158249665411e-05  -1.0846110324950232e-06  1.3430873903428458e-07  2.8400803284132370e-07  1.4972956100953156e-06  8.2021712663060848e-07  1.4298474825257499e-06  5.3429948420853215e-07  2.4394422626946413e-07  -1.7387874345684281e-07  -1.8010047884584775e-07  1.1301202538001985e-06  -1.6189243671062611e-03  4.8058493697665161e-03  -1.2858388416597254e-05  -7.2298770941789528e-06  -1.7276608795187273e-07  4.6836908198313145e-07  -2.5758127886424242e-07  -1.0694748437307014e-06  -5.5827804434224802e-06  -1.2477756229905131e-06  -2.4619334691914001e-06  -2.0188679613657924e-06  -7.4831964076136406e-06  -4.4195979488939690e-05  1.7301526041503308e-07  5.3254664623178158e-04  6.5363046334729944e-07  7.7414041961301120e-07  -1.3340073772863811e-05  -4.5186972989453840e-04  -1.1282258266953438e-03  -6.8560308908580741e-06  -1.1987695938774361e-05  -8.8565543645953995e-05  -2.7770853657675465e-04  -1.7723048684834227e-03  -4.8100890834418490e-07  6.2717722737013665e-07  2.1045474859970944e-07  8.9074226339686659e-07  5.2514890651390710e-03  -7.0794793662140347e-06  2.6692887524421105e-07  7.3631360513724661e-07  2.7690019017960873e-07  -4.6867725449770383e-07  3.1372590768371114e-07  7.5235942131599989e-07  4.7368879205687396e-08  -8.4739812102816204e-07  -7.7181115214694685e-07  4.3623819895651971e-07  5.4256331147354732e-07  -2.6143483196536436e-06  8.7033917071583025e-07  2.5489621678363081e-07  -6.9611025106494436e-07  -2.6698316389608273e-07  -2.8898758170526812e-07  -8.1339302391689317e-07  -2.1680989809477019e-05  -6.1766603771487079e-06  -5.2117514542830457e-07  -5.1352839405174812e-07  -4.1411303038487623e-07  -4.4472882051256668e-07  -1.7391530218562535e-06  6.7597530016945777e-07  -1.1576015193732070e-06  6.8350669681149604e-07  -2.8324449349883198e-07  -8.7819697164042873e-07  1.1783093861112401e-07  -4.0830522591678613e-07  -4.4152200041896823e-07  -5.3976994787252095e-07  8.3066260166609952e-07  1.1226550726829751e-06  6.2912655511817509e-07  4.0968514199864609e-07  6.6869012422440572e-07  -5.7182930930091490e-07  1.9829282319905425e-06  -1.6153095501911289e-07  -1.3030542264636107e-05  -1.8433975908554651e-06  -2.3693021117063154e-06  -3.8094644467059609e-07  -1.2130392871361799e-08  -8.5350989992420237e-06  3.2348718642825192e-07  -3.2574238228861954e-05  -1.1247514397734427e-05  -2.3740731428816961e-05  5.4493416532425348e-04  -5.8572907220193357e-07  -4.5001348223945025e-07  -3.8341516507023408e-07  1.5139376266960384e-07  6.6086196668667790e-08  -6.5336442598863894e-07  8.9811773585664030e-07  1.1095495071676556e-06  8.6063839589141746e-05  -1.3227112338021527e-04  -3.3723739425063187e-05  1.5547750526489893e-05  1.3162833017918177e-06  4.4735650223363621e-06  -1.3190717298774034e-06  7.8744181586574174e-06  3.2310150599341815e-05  -7.8988372056467771e-05  -6.7575118916092273e-03  -2.0488277882084674e-05  1.3728871152995446e-07  5.9375860079454422e-07  8.5552525507656064e-05  1.2191944289292273e-04  4.7529279475984625e-04  2.9064206960133977e-07  5.7305804341034215e-04  -1.2617700449058633e-06  -2.4764217575557558e-07  -7.4542687675598924e-03  2.1655000077245185e-07  -5.3564514773427148e-08  -9.5574466448924966e-07  -1.0158052948317870e-06  -1.3496999296015729e-07  -2.7955464701303357e-07  8.3451624544498841e-07  1.5111078251082961e-06  -3.1777371471223739e-07  2.2161051562176583e-07  -1.6830443580891820e-07  -1.2339450746715260e-05  -3.6054205684377745e-06  9.5924018271168887e-07  -2.9252013933970996e-08  -3.6908301095343567e-04  -1.4756359429239912e-04  5.5315767117227478e-07  -3.8919184246645280e-07  7.4813360400444016e-07  -5.7393824395370716e-07  1.2647360738299458e-06  -9.7330257098922952e-07  4.4340263562885520e-07  -1.3320983136850682e-04  -6.3861915932164430e-07  2.8051344740148851e-07  -1.2881717031065260e-07  6.2084540119529516e-04  -2.6157932943416904e-05  -1.8216668521841278e-07  2.6965236659122761e-07  -2.5607011751303609e-07  1.2944162138040890e-08  7.4852994872170015e-07  4.2631102361446547e-08  -3.5423335009888998e-07  -6.6452697748872761e-07  5.0774633329236641e-07  -2.7322149996391253e-07  -2.8765165084125669e-04  -1.6952550774731597e-06  -1.3105805659488842e-05  -1.5632438776725122e-07  -1.0782000536414081e-06  -1.0130743280545685e-05  8.9100203901141992e-07  9.6219421929780532e-07  2.6092917783141241e-06  1.3046792364369238e-06  7.1277864191243321e-04  -8.0413855867204505e-06  -7.8391845977663060e-07  -6.6712328321101383e-06  -2.8208038341537266e-05  -1.5882544503331920e-07  -2.5629285028489825e-07  -4.0316372885522269e-07  -2.0144929281957314e-07  -4.6134446168208001e-07  -4.2119947102574792e-08  3.8611819893656856e-07  -8.4798858706426330e-07  -1.2100523502049221e-05  -1.4466342564862871e-05  -1.8983445662648279e-07  -6.9328813708414844e-07  3.2935069593678207e-07  -4.0620850393116651e-07  -1.0683471482436063e-03  -3.5318062528439989e-05  2.2965724806855665e-07  -5.0816672688135678e-06  -2.0538935893856478e-05  1.3969993127240742e-06  -4.6848925083937097e-07  -4.7887164241154955e-05  -8.2245022854088214e-04  -9.6680865784554496e-04  -7.5950764210467984e-04  7.6101209617841017e-07  -8.6640570305777561e-08  1.0648851941998397e-06  1.2536539028554296e-07  -4.7940836839286665e-08  1.2107495984933378e-07  -9.8196674529755298e-07  2.0575161073496455e-07  2.5484795906420493e-07  1.4739549318183682e-07  -9.7810597706863188e-07  2.6989322623951852e-07  1.7634329562804042e-06  7.1805009501392371e-07  4.1833343434229134e-07  -2.6794957391388767e-05  -1.8776230623808514e-05  2.4466709124873653e-07  2.4085252795135786e-07  -6.4735793075116195e-07  6.3376370421871049e-07  7.9407522411651326e-07  2.8792328175790120e-07  -1.6286287179094456e-06  -1.4331447095911182e-06  3.5549448441107015e-07  7.2044323383821537e-07  -7.4590542001631830e-07  -7.6914874468196208e-07  5.5730336133870768e-07  -7.0200078543590344e-09  -2.8910852345939867e-05  -9.2048349595892217e-05  1.8996275341600459e-03  -3.3293451110977962e-06  -1.1230347537354538e-06  -8.2130878024015825e-07  -5.1978062952538756e-07  -3.5144478372486982e-05  -1.7715365109135358e-06  8.3648905553306500e-07  -3.2506056377412315e-04  -9.7621660072345980e-06  -2.6246814486765660e-07  -1.1196775211115452e-08  8.3488175235642810e-07  -1.3320105871415836e-06  1.0341536125102447e-06  1.0509067503690373e-06  8.6047266597583723e-07  7.4982861805332374e-07  4.6480591102326538e-07  1.3945095595116481e-07  9.7522350734718762e-07  -8.9960751247807669e-07  6.0695759162153824e-07  -1.4919905893515597e-06  7.1540319816008109e-07  1.6551127561475440e-06  -1.8412564688680681e-07  5.6587171798321229e-07  6.4748222019258779e-07  2.4669039106118306e-06  -3.6074086116752738e-07  -2.2391645856389896e-06  -1.6760219762852703e-06  9.1621691506988547e-07  3.4602974941116993e-07  -3.4319527207809373e-08  -9.5357521241192521e-08  5.8993735617684168e-07  -7.22711090943646