<?xml version="1.0"?>
<VTKFile type="UnstructuredGrid"  version="0.1"  >
<UnstructuredGrid>
<Piece  NumberOfPoints="16808" NumberOfCells="31534">
<Points>
<DataArray  type="Float64"  NumberOfComponents="3"  format="ascii">0 12.7 0  0 0 0  0.2 0 0  0.2 12.7 0  0.2 6.35 0  0 6.35 0  0 3.175 0  0.2 3.175 0  0 9.524999999999999 0  0.2 9.524999999999999 0  0 11.1125 0  0.2 11.1125 0  0.2 1.5875 0  0 1.5875 0  0.2 4.762499999999999 0  0 4.762499999999999 0  0.2 7.937499999999999 0  0 7.937499999999999 0  0.2 10.31875 0  0 10.31875 0  0.2 11.90625 0  0 11.90625 0  0 5.556249999999999 0  0.2 5.556249999999999 0  0 0.79375 0  0.2 0.79375 0  0 2.38125 0  0.2 2.38125 0  0.2 7.143749999999999 0  0 7.143749999999999 0  0 8.731249999999999 0  0.2 8.731249999999999 0  0 3.96875 0  0.2 3.96875 0  0.2 11.509375 0  0 11.509375 0  0 10.715625 0  0.2 10.715625 0  0 7.540624999999999 0  0.2 7.540624999999999 0  0.2 2.778125 0  0 2.778125 0  0.2 5.159374999999999 0  0 5.159374999999999 0  0.2 5.953125 0  0 5.953125 0  0.2 8.334375 0  0 8.334375 0  0.2 0.396875 0  0 0.396875 0  0 1.190625 0  0.2 1.190625 0  0.2 3.571874999999999 0  0 3.571874999999999 0  0.2 4.365625 0  0 4.365625 0  0.2 1.984375 0  0 1.984375 0  0.2 6.746874999999999 0  0 6.746874999999999 0  0.2 9.128124999999999 0  0 9.128124999999999 0  0.2 9.921874999999998 0  0 9.921874999999998 0  0 12.303125 0  0.2 12.303125 0  0 11.7078125 0  0.2 11.7078125 0  0.2 10.5171875 0  0 10.5171875 0  0.2 8.135937499999999 0  0 8.135937499999999 0  0.2 5.754687499999999 0  0 5.754687499999999 0  0 5.3578125 0  0.2 5.3578125 0  0 7.739062499999999 0  0.2 7.739062499999999 0  0 3.770312499999999 0  0.2 3.770312499999999 0  0.2 1.3890625 0  0 1.3890625 0  0.2 2.579687499999999 0  0 2.579687499999999 0  0 2.9765625 0  0.2 2.9765625 0  0 4.1671875 0  0.2 4.1671875 0  0 0.1984375 0  0.2 0.1984375 0  0 0.5953124999999999 0  0.2 0.5953124999999999 0  0.2 1.7859375 0  0 1.7859375 0  0 2.1828125 0  0.2 2.1828125 0  0.2 0.9921874999999999 0  0 0.9921874999999999 0  0.2 12.1046875 0  0 12.1046875 0  0.2 12.5015625 0  0 12.5015625 0  0 9.723437499999999 0  0.2 9.723437499999999 0  0 8.9296875 0  0.2 8.9296875 0  0 9.326562499999998 0  0.2 9.326562499999998 0  0 6.548437499999999 0  0.2 6.548437499999999 0  0 6.945312499999999 0  0.2 6.945312499999999 0  0 3.3734375 0  0.2 3.3734375 0  0 8.532812499999999 0  0.2 8.532812499999999 0  0 6.1515625 0  0.2 6.1515625 0  0 4.564062499999999 0  0.2 4.564062499999999 0  0 4.960937499999999 0  0.2 4.960937499999999 0  0.2 7.342187499999999 0  0 7.342187499999999 0  0 10.1203125 0  0.2 10.1203125 0  0.2 10.9140625 0  0 10.9140625 0  0 11.3109375 0  0.2 11.3109375 0  0.1 10.81484375 0  0.1 12.00546875 0  0.1 5.85390625 0  0.1 8.235156249999999 0  0.1 8.632031249999999 0  0.1 8.83046875 0  0.1 9.425781249999998 0  0.1 9.624218749999999 0  0.1 10.21953125 0  0.1 10.41796875 0  0.1 10.61640625 0  0.1 11.60859375 0  0.1 11.80703125 0  0.1 11.41015625 0  0.1 5.258593749999999 0  0.1 7.639843749999999 0  0.1 12.7 0  0.1 4.067968749999999 0  0.1 2.87734375 0  0.09999999999999999 2.67890625 0  0.1 3.86953125 0  0.1 1.88515625 0  0.1 0.6945312499999999 0  0.1 1.28984375 0  0.1 1.48828125 0  0.1 2.08359375 0  0.1 0 0  0.1 0.29765625 0  0.1 0.8929687499999999 0  0.09999999999999999 1.09140625 0  0.1 0.4960937499999999 0  0.1 7.242968749999999 0  0.1 4.861718749999999 0  0.1 5.060156249999999 0  0.1 4.464843749999999 0  0.1 4.663281249999999 0  0.09999999999999999 3.47265625 0  0.1 6.846093749999999 0  0.1 7.044531249999999 0  0.1 6.449218749999999 0  0.1 6.647656249999999 0  0.09999999999999999 6.250781249999999 0  0.1 6.05234375 0  0.09999999999999996 1.68671875 0  0.1 4.266406249999999 0  0.1 3.07578125 0  0.09999999999999999 2.28203125 0  0.09999999999999996 2.48046875 0  0.1 3.671093749999999 0  0.1 3.27421875 0  0.09999999999999999 5.457031249999999 0  0.09999999999999996 5.65546875 0  0.09999999999999999 7.441406249999999 0  0.09999999999999999 7.838281249999999 0  0.09999999999999996 8.036718749999999 0  0.1 11.21171875 0  0.1 11.01328125 0  0.1 10.02109375 0  0.1 8.43359375 0  0.1 9.227343749999999 0  0.1 9.02890625 0  0.1 9.82265625 0  0.1 12.40234375 0  0.1 12.20390625 0  0.1 12.5755843996063 0  0 0.09921874999999999 0  0.2 0.09921874999999999 0  0.09999999999999999 0.148828125 0  0.09922180175781284 7.143749999999999 0  0 7.639843749999999 0  0.2 7.639843749999999 0  0 5.258593749999999 0  0.1007781982421872 5.159374999999999 0  0.2 5.258593749999999 0  0.09922180175781285 11.90625 0  0.09922180175781285 11.509375 0  0.1007781982421872 11.7078125 0  0 11.41015625 0  0 11.60859375 0  0.2 11.41015625 0  0.2 11.60859375 0  0.09922180175781285 10.715625 0  0.1007781982421872 10.5171875 0  0.1007781982421872 10.31875 0  0 10.41796875 0  0.2 10.41796875 0  0 10.21953125 0  0.2 10.21953125 0  0.1007781982421872 9.524999999999999 0  0 9.624218749999999 0  0.2 9.624218749999999 0  0 9.425781249999998 0  0.2 9.425781249999998 0  0.1007781982421872 5.953125 0  0.09922180175781285 8.135937499999999 0  0.1007781982421872 8.731249999999999 0  0 8.83046875 0  0.2 8.83046875 0  0 8.632031249999999 0  0.2 8.632031249999999 0  0.2 8.235156249999999 0  0 8.235156249999999 0  0.2 5.85390625 0  0 5.85390625 0  0 11.80703125 0  0 12.00546875 0  0.2 11.80703125 0  0.2 12.00546875 0  0 10.61640625 0  0 10.81484375 0  0.2 10.61640625 0  0.2 10.81484375 0  0.09922180175781287 5.556249999999999 0  0.1007781982421872 11.1125 0  0.09922180175781285 8.334375 0  0.09922180175781285 8.9296875 0  0.09922180175781285 9.723437499999999 0  0.2 12.60078125 0  0 12.60078125 0  0.1007781982421874 1.984375 0  0.1007781982421874 1.3890625 0  0 2.67890625 0  0 2.87734375 0  0.1007781982421874 2.5796875 0  0.2 2.67890625 0  0.2 2.87734375 0  0 3.86953125 0  0 4.067968749999999 0  0.1007781982421874 3.7703125 0  0.2 3.86953125 0  0.2 4.067968749999999 0  0.09922180175781263 2.9765625 0  0 2.08359375 0  0.2 2.08359375 0  0.2 1.48828125 0  0 1.48828125 0  0 1.28984375 0  0.2 1.28984375 0  0 0.6945312499999999 0  0.2 0.6945312499999999 0  0.2 1.88515625 0  0 1.88515625 0  0.09922180175781251 0.9921874999999999 0  0.1007781982421875 0.5953124999999999 0  0 0.29765625 0  0.2 0.29765625 0  0.1007781982421875 0.396875 0  0 0.4960937499999999 0  0.2 0.4960937499999999 0  0.2 1.09140625 0  0 1.09140625 0  0.1007781982421876 0.7937499999999998 0  0 0.8929687499999999 0  0.2 0.8929687499999999 0  0.1007781982421876 7.937499999999998 0  0 8.036718749999999 0  0.2 8.036718749999999 0  0 7.83828125 0  0.2 7.83828125 0  0.1007781982421876 7.739062499999999 0  0.09922180175781239 7.540624999999999 0  0.2 7.441406249999998 0  0.09922180175781239 7.3421875 0  0 7.441406249999998 0  0 5.655468749999999 0  0.09922180175781239 5.754687499999999 0  0.2 5.655468749999999 0  0 5.45703125 0  0.2 5.45703125 0  0.1007781982421876 5.3578125 0  0.1007781982421876 3.175 0  0.09922180175781241 3.571874999999999 0  0 3.671093749999999 0  0.2 3.671093749999999 0  0.1007781982421876 2.38125 0  0 2.48046875 0  0.2 2.48046875 0  0 2.28203125 0  0.2 2.28203125 0  0.1007781982421876 2.1828125 0  0 3.07578125 0  0.09922180175781242 1.5875 0  0 1.68671875 0  0.09922180175781239 1.7859375 0  0.2 1.68671875 0  0 6.05234375 0  0 6.250781249999999 0  0 6.44921875 0  0.2 6.05234375 0  0.2 6.250781249999999 0  0.1007781982421876 6.349999999999999 0  0.2 6.44921875 0  0.1007781982421876 6.548437499999999 0  0.09922180175781242 6.746874999999999 0  0.1007781982421876 6.945312499999998 0  0 6.647656249999999 0  0 6.84609375 0  0.2 6.647656249999999 0  0.2 6.84609375 0  0 3.27421875 0  0 3.47265625 0  0.2 3.07578125 0  0.2 3.27421875 0  0.1007781982421876 3.3734375 0  0.2 3.47265625 0  0.09922180175781244 4.167187499999999 0  0 4.266406249999999 0  0 4.46484375 0  0.2 4.266406249999999 0  0.1007781982421876 4.365625 0  0.2 4.46484375 0  0 5.060156249999999 0  0.2 5.060156249999999 0  0.1007781982421876 4.564062499999999 0  0.09922180175781242 4.762499999999999 0  0.1007781982421876 4.960937499999998 0  0 4.663281249999999 0  0 4.86171875 0  0.2 4.663281249999999 0  0.2 4.86171875 0  0.2 7.044531249999999 0  0.2 7.242968749999999 0  0 7.044531249999999 0  0 7.242968749999999 0  0.09922180175781239 1.190625 0  0.09922180175781241 3.96875 0  0.09922180175781241 2.778125 0  0.09922180175781195 12.303125 0  0.100778198242188 12.1046875 0  0 12.20390625 0  0 12.40234375 0  0.2 12.20390625 0  0.2 12.40234375 0  0 9.028906249999999 0  0 9.227343749999999 0  0.09922180175781198 9.128125000000001 0  0.09922180175781198 9.3265625 0  0.2 9.028906249999999 0  0.2 9.227343749999999 0  0 8.43359375 0  0.09922180175781198 8.5328125 0  0.2 8.43359375 0  0 9.822656249999998 0  0 10.02109375 0  0.09922180175781198 9.921875 0  0.09922180175781198 10.1203125 0  0.2 9.822656249999998 0  0.2 10.02109375 0  0.09922180175781196 10.9140625 0  0 11.01328125 0  0 11.21171875 0  0.09922180175781198 11.3109375 0  0.2 11.01328125 0  0.2 11.21171875 0  0.09922180175781198 6.1515625 0  0.08672180175781248 12.48896407480315 0  0.07461090087890626 0.2232421875 0  0.1253890991210938 0.0744140625 0  0.05038909912109379 4.3164077878937 0  0.1496109008789064 5.605467212106299 0  0.1496109008789064 8.0867202878937 0  0.05038909912109358 5.1101577878937 0  0.05038909912109338 4.514845287893699 0  0.05038909912109338 6.896095287893699 0  0.05038909912109338 6.499220287893699 0  0.05000000000000002 6.002734375 0  0.05000000000000002 3.819921874999999 0  0.1496109008789064 5.5070327878937 0  0.1499999999999996 7.391796874999998 0  0.05038909912109338 4.911720287893699 0  0.1496109008789069 9.971092212106297 0  0.1496109008789069 9.177342212106298 0  0.05038909912109314 12.0554702878937 0  0.149610900878906 12.2539077878937 0  0.05 12.7 0  0.1374999999999996 12.63779219980315 0  0.1496109008789064 9.772654712106299 0  0.1496109008789064 9.6742202878937 0  0.1496109008789064 8.978904712106299 0  0.1496109008789064 8.880470287893701 0  0.1496109008789064 8.383592212106299 0  0.1496109008789064 
[...]
<PointData  Scalars="sigma (Pa)"> 
<DataArray  type="Float64"  Name="sigma (Pa)"  format="ascii">4.3433460617441754e-03  4.2166715525999059e-03  -3.8330593183739316e-03  -4.1895513111238182e-03  -1.7834345008149848e-06  1.5096091583476799e-09  5.9109716315870448e-09  -5.3815166975174344e-08  4.8131863026563618e-08  2.7451816078855737e-08  -7.9359831162100414e-08  -3.1381903467293557e-07  3.1616052276072211e-08  -3.7624576926435091e-08  9.1959626451454215e-09  8.2077361051466797e-09  -4.7211240190660608e-07  -2.0597831390515859e-07  -5.6807044769172353e-09  -5.1531047807607242e-10  9.3654954822741994e-08  7.9253794981926408e-08  2.8989579414437675e-08  -2.2375705540394152e-05  -2.5328330840839220e-08  3.0933820187509080e-08  6.2357690299484980e-09  -4.8551148273390733e-08  -1.1529114330497222e-05  2.1886808077411762e-08  -9.9697552658271350e-08  -2.8130782901359509e-09  -1.6056088865188028e-07  -2.6032547231080339e-08  4.8906483401171274e-08  1.8017856669276265e-07  6.9602423560999287e-09  -1.2907713856007624e-09  1.0077527447835339e-06  -8.3989424630393590e-05  -2.2397709988376901e-08  -1.1708221216452742e-07  7.4417097132849713e-05  -1.7354806798071272e-06  -5.2790431429628145e-06  5.3110655052053787e-09  3.1110474948129206e-08  -2.9235464575339753e-08  7.8343381827700176e-09  -1.5260565091204568e-08  -2.0763235724084660e-08  -2.7176439818066143e-08  -5.0826379658398150e-09  5.8115128131215345e-08  -1.6815478663080726e-08  -7.3616229490140112e-09  -5.7061496050922565e-08  -6.9950242009632893e-09  3.1189771324681739e-06  5.4419194769540914e-11  1.7489553368276869e-09  2.8292869991128073e-08  4.1477798168878123e-09  5.4222023662137869e-08  4.0119145364080595e-08  1.8820501559104385e-07  4.5026155330774256e-08  -4.5865246108364769e-08  3.2917866654057872e-08  -1.1551920185559765e-07  -9.2276091120346492e-08  -2.8571122516989393e-07  -1.0829044092023275e-05  4.1004835108220648e-08  1.6980766850631711e-07  -7.9013046225568333e-05  -4.1782715596183321e-07  2.6998066010196151e-05  -2.7570234354916334e-08  5.8487514891799318e-08  -1.4282952648781292e-08  1.2965203448496519e-07  1.0295211562306678e-07  3.0185745985909112e-08  8.5631810490077267e-09  -9.4253124601043697e-09  -2.0219235334959503e-08  8.6089720663201653e-08  6.5144413030066262e-08  1.3856876092085373e-07  -2.4563258357618147e-08  2.1079032654532028e-08  -4.4229576390595443e-08  -1.0173743558988958e-08  8.7304858881457585e-08  -4.3722462528532526e-08  1.6162503791729971e-09  4.8541980243460542e-08  -3.3524092398496119e-09  2.0050425996398933e-08  -2.6122337285484440e-08  5.2633316854658772e-08  -7.7320761335532387e-09  4.6793417924789505e-08  5.0617019128719870e-08  3.4187732700665855e-08  2.4102091767306185e-08  -7.1625856571813033e-08  -5.1240214148660084e-09  -1.8267234068129784e-06  -1.5779824486733662e-08  -5.6441836306048944e-06  3.9991609557547886e-08  1.2732660606866307e-08  2.1230632152056389e-08  -4.5899176765456378e-08  1.0634717299920243e-08  2.1554407046300599e-06  -2.7562879289593267e-08  -1.4414856202367592e-07  -1.7056151228635544e-07  -5.2491372105904387e-07  -2.3766452754933841e-05  -4.2289297479438721e-08  2.6451215498097869e-08  -7.5283928991307094e-08  2.9588086992990819e-09  1.6818041760703583e-09  -1.5212925442383852e-07  3.9157859357453102e-08  -5.6800749691722723e-08  1.6739117705372553e-08  -2.0149756303196369e-06  -7.9451045835837705e-08  2.5370171475637984e-08  4.0046954734466239e-08  -9.0132576227529396e-08  2.2834143219428217e-09  -4.5503797164543310e-08  8.6129356767757980e-08  2.1858599108681430e-09  -5.1728562502161536e-08  1.9490981710141216e-08  -9.7633978006834403e-09  -9.4720901051121494e-05  -1.0336415607324106e-04  9.4489373257625203e-06  -9.8158238762028838e-08  2.6331455942405924e-08  -6.4767012721972388e-08  -6.9609717204448238e-09  1.1061138469261876e-08  -9.0083319105756225e-08  7.0680347261672786e-08  -4.8952377848405609e-08  -1.6775480169519725e-08  2.5540062810747491e-05  1.1479993857929184e-07  -5.4732281277183112e-08  9.4063180348699620e-08  -2.3083053396962040e-08  -4.8476089948499368e-06  -1.8593953315480585e-06  1.6504992359529102e-04  1.0620798780253059e-07  4.4729978244383759e-08  -1.1723672816350424e-07  -1.2139046678197013e-06  -2.1944424300217468e-06  -4.5598347803071098e-07  -7.6427953435118771e-07  -7.0978853460776645e-07  -1.1309359645924837e-06  -9.4201714275128617e-08  2.4836646528399637e-09  -5.1597015584131361e-08  9.2162694715340246e-09  8.5698594519283357e-09  4.2166334901753627e-08  1.4099108627336494e-07  -1.3881130297460465e-05  -4.1732975318978820e-06  -1.4811640252390643e-05  1.7711033399480050e-04  -1.7138284711543680e-06  4.0049974897496314e-08  -7.0459937621605524e-08  -6.7773923992702915e-08  1.8240327350349624e-08  -4.5174222168585969e-08  2.8462201151066720e-08  7.2034139674287933e-08  2.9164215941666787e-07  -9.0610694602653865e-09  -5.6646603079886347e-07  9.3096287630333719e-07  3.3365973948547052e-07  -4.1119748418821385e-07  -3.2184186108599582e-06  2.0768174874556230e-06  -1.3749182215269621e-04  -4.7389697263687518e-07  8.1172306797740229e-06  -1.2576620432489186e-04  -5.3380807199574503e-08  2.4298749415366826e-08  -2.3703096507827319e-08  -9.7020945872006660e-08  1.7222342188104627e-08  2.0502668086680874e-08  9.1057668888013748e-09  -1.1971099919572936e-07  2.9316561005224118e-08  -7.7419321694424993e-08  1.3486181466777464e-07  -2.9322070689832389e-08  -1.1846262700142354e-07  -4.3960866684232648e-08  1.2751760296769335e-07  -1.0177090511198841e-08  1.0386860766154604e-08  7.1995610686327298e-08  1.3398055842476695e-08  -1.5199105620272442e-06  -2.7901260150687957e-07  1.4795860101519298e-08  7.9117081446481412e-08  -7.6517568221858713e-08  1.8302034291556600e-08  -2.1349833385943401e-08  -4.6073866553548131e-08  -5.2745758614307479e-08  -7.4562817023142001e-06  4.0058009215377208e-09  -1.8037759492265638e-07  -2.7643969125602210e-08  5.1086257900487626e-08  -3.4414437374206558e-09  6.5909331966603540e-08  -1.2930370472643019e-07  4.4688952060326272e-09  2.7439233808810635e-09  -4.8767404472236659e-06  -2.0593420285390403e-08  -4.6100433949255992e-08  -2.9908130506776987e-08  -1.2137489793273297e-07  3.3139277767460734e-07  3.8713244301278492e-07  8.4793912038742794e-08  1.4790246392644658e-07  3.7193061611586339e-09  1.1386547855367061e-07  1.3818746345689881e-07  1.1978825550258963e-07  -6.6034139544897081e-10  2.5763960911126649e-08  -2.0606072742540031e-08  1.2690836314681533e-07  -7.8766292711494781e-09  -1.3995791759812975e-07  -1.2933451103099921e-08  -7.4778381557356787e-08  7.1742259269708533e-08  7.3529695676904768e-08  1.1410446120691268e-07  -3.0120020860706594e-08  3.3133380166084473e-09  -4.8908997846143166e-08  -3.8109037507478835e-08  3.7311471649910140e-08  -1.3116181701373749e-07  -2.9698978828309158e-08  4.7636492056407741e-09  -2.6258091727015676e-08  1.9130678071973811e-07  8.7112121657520993e-08  1.3447089513384603e-07  3.1092446344055308e-08  8.9296480478826165e-08  -2.5831767740978933e-09  6.5665491025550729e-08  5.5694356304428852e-08  -1.2012034870845831e-08  1.5525076403466989e-05  -2.2893345900799964e-08  1.7848747152213973e-08  -1.6950526724865697e-06  -4.3526352565240067e-05  7.1241742030852437e-06  -4.5513878661475457e-05  -4.3751533390587525e-05  -4.8934601282445088e-06  -4.4365935298215986e-08  -2.5543784801492252e-08  -3.0814831478395888e-06  -4.5018871046801841e-05  9.0642632821733398e-08  -4.0810620213635587e-05  -4.3553048188460371e-05  8.0805007506666800e-08  -5.0493517968602633e-08  4.7734637495111851e-08  -7.0980396088117684e-09  9.1854046636430273e-09  -6.1324713007891838e-08  4.7161875067034219e-08  -2.8138882935545032e-08  -2.2883494176004812e-11  7.5356220214060334e-08  -1.5491218712408081e-08  4.2879668416297838e-08  4.1154910175025103e-08  7.6584842026856308e-08  1.4393007154698607e-07  -1.2578147280562148e-08  -4.3225193811375734e-10  2.8416199704689895e-09  -3.8000458421630514e-06  -2.3008876369279859e-06  -5.0460054428873868e-07  -1.6654463428488030e-06  -5.1882396352778910e-07  -5.8935222047407367e-07  -1.6439243041801352e-06  7.5279477638189922e-09  9.6990770883499133e-10  -2.3708065187324704e-06  -4.1041380517149622e-06  -4.7305165498341275e-08  -2.2167770732443898e-08  3.1873308168185607e-08  3.6764919225079434e-08  3.2226782604317355e-08  8.5250761189399512e-08  3.7488081478299084e-09  1.8558695679884316e-07  2.1535036881376095e-08  -2.5190082814602950e-08  -2.1498182371559949e-08  6.6775726229390843e-08  -1.9126322295674812e-06  -3.3314925533311863e-05  1.5896392970160843e-07  -4.5501287098965750e-07  1.3180157290997314e-05  -3.4740415107188130e-08  -1.1437328370658110e-07  9.7705242345378417e-08  7.4899427479302370e-08  -7.9916747761448486e-06  7.3383676885835900e-05  1.4814234065052506e-08  -8.3205021896564529e-09  9.8659921991219855e-09  1.4110723569989736e-08  1.0839602828554499e-07  -5.9574835697927064e-08  8.8006353398961793e-08  -1.4241407434360116e-07  -2.5162077933668283e-07  -1.5106046095174324e-08  3.7357844327747037e-08  3.0691690539216901e-08  -6.8512330262865192e-08  -6.5336266217252075e-08  -9.3466614691204400e-09  4.2329073522769328e-08  7.7093754695745276e-08  -2.1364527011409495e-07  -4.1600592859837497e-08  2.2617646945253601e-08  4.0355646674247147e-08  -3.4864112796067452e-09  -4.5426913609306383e-08  3.4501591773704148e-09  1.2076129841215354e-08  1.6059205844192526e-07  -8.9300346654015788e-08  -2.1812219742684132e-07  -3.5649943216347656e-08  1.2824945565491392e-09  1.1020614943413644e-08  2.4490921117891130e-08  -5.7567977385976433e-07  -5.6057426747777551e-07  -3.9676045291387831e-07  7.7732391023191511e-06  1.2717049325359360e-07  -4.0568674485831345e-06  -5.8472246116678411e-07  4.7225623842445925e-05  3.7515660919404859e-08  -3.8776635008185041e-07  -1.2111102304373888e-07  -3.4115509418743263e-07  5.5443750814003714e-08  -1.7967811147854488e-05  -1.9519647804574202e-05  -3.0583468358044262e-08  7.8482687223598664e-08  -4.4096228587452507e-08  -3.5332524306172159e-08  1.3965321919861678e-08  7.5036608626514437e-04  -2.7410620799611699e-06  7.5310279725189425e-08  -2.0913647877426006e-08  -1.0798850944999381e-08  -9.6749133828694996e-08  2.7797032940186591e-08  -1.4638413960587790e-07  3.0473528508081947e-08  6.8450527070346801e-08  2.9202313317709359e-08  -1.1473861192149888e-07  -4.8121868465734617e-08  -3.8494604734051555e-09  -2.6440238953244692e-08  -4.3224283748002694e-07  -5.1905443813471561e-06  4.4818774162655768e-09  2.0977289322804183e-08  3.0568666608215985e-08  6.1619503819881004e-08  1.0284791863219370e-07  -7.3273876261726959e-08  -8.0572727582357603e-08  -1.1466876634515866e-07  -1.4510783161718849e-08  1.4039364429832353e-07  -3.2472532049276485e-08  2.7705919205740462e-08  -2.4034072576045781e-08  8.1781723733457408e-08  -1.3251605464598733e-08  3.1913115561751850e-08  -7.3926019740359086e-08  -2.9164648928533861e-05  -2.4437384370471161e-05  -1.0973246707847636e-04  -3.0877062045539912e-05  -9.5199320627186287e-08  -3.7033118459692976e-08  2.7617185681275487e-05  -6.1218641252376003e-08  -3.3887727500822702e-10  -8.5826339587436233e-06  -1.5587853869422721e-07  -5.6145104362321873e-06  -9.6454010923888953e-08  -1.8697231568727304e-06  -6.7673947077910535e-08  -9.7672325786716516e-08  7.5069324842062511e-08  6.6562112170206526e-08  -7.6543823529723983e-08  1.6077833642299098e-08  5.7412942525432147e-08  -2.4054127132000197e-08  4.0162200674880750e-08  6.4892996788990084e-04  1.7014795704209879e-08  1.2396746601682637e-07  2.2768929962437822e-08  5.7049186634745199e-08  4.6925137603651343e-08  -4.1860033222203648e-08  -1.3411054899463824e-08  4.3507641811684220e-08  1.6523526124274431e-08  -7.3019230303385233e-08  9.1419077610885318e-08  -4.6365906294236471e-08  -4.4786125367617805e-09  2.1475485489412121e-08  1.3082194419764017e-07  6.8286515089546638e-08  6.8262313266462169e-08  4.1139762963391676e-08  -5.6079392712104432e-08  -6.9606649078170295e-08  9.3664070469050566e-09  -1.1263138947117219e-07  -7.7545301535485710e-08  -5.0961151745141621e-08  2.4612225924431094e-08  5.3318905042260707e-09  6.0120157647773236e-08  -4.8782237058483713e-07  2.6115786693476205e-08  2.5469564507193309e-05  -1.6172213343932148e-07  -8.4740379905903562e-06  6.7217341456618367e-08  -1.2326677128297825e-07  -4.4284315278004833e-05  -1.7318227662763204e-06  -2.0598053624632350e-06  -3.1766354449472556e-06  -6.3222961033082238e-07  -2.1910001081811006e-06  -7.4197983399977867e-06  5.2120208687037244e-05  -5.9739081709684800e-08  -1.8869316186753070e-08  9.8796320158901690e-08  -1.3173681112249321e-07  -5.4695383905409142e-08  1.5001356992935408e-07  -1.3436089142737762e-07  6.4437532994975742e-08  8.9080928044452771e-08  -4.4450232738037977e-08  -3.0613131433761348e-09  1.0145189533196435e-07  -6.7404972844046909e-08  -1.0044064304365988e-06  -1.1495994727966153e-07  -7.8021614458937603e-08  -8.1159924894757023e-09  -2.7308129848941829e-06  -5.0799131003887423e-07  6.7654885539030334e-09  4.6518735704639343e-08  -4.2146606981597558e-08  1.4588376035803343e-07  3.1114924774223483e-09  -3.6803522886679294e-08  1.0243425380332916e-07  6.4664839289530306e-09  1.7383558340854111e-08  -3.7564740710904267e-06  -9.8780425995397380e-08  1.2232096593539145e-08  2.5865867097661369e-08  1.3636545690182741e-07  7.4700870863123549e-08  1.3022267877719469e-07  4.8661054035368422e-08  2.2217123237729752e-08  -1.5835920785584067e-08  -1.6402567974234643e-08  1.0292516023275840e-07  -1.4744275739660452e-04  4.3769041771638310e-04  -1.1710715639635008e-06  -6.5845760312504056e-07  -1.5734535517614570e-08  4.2656511869546655e-08  -2.3459044480059307e-08  -9.7401941130407524e-08  -5.0844903126671030e-07  -1.1364052251651740e-07  -2.2421936743225082e-07  -1.8386737336057665e-07  -6.8152857120249947e-07  -4.0251276056696370e-06  1.5757260090285080e-08  4.8501429409856870e-05  5.9529141638614692e-08  7.0504485754636164e-08  -1.2149408070978600e-06  -4.1153818098190825e-05  -1.0275262398194913e-04  -6.2440970061452276e-07  -1.0917736090242109e-06  -8.0660642805071158e-06  -2.5292171268449124e-05  -1.6141181271880174e-04  -4.3807665144044729e-08  5.7119861046671089e-08  1.9167071947391470e-08  8.1123916790291446e-08  4.7827683846897239e-04  -6.4476005069636811e-07  2.4310455220496679e-08  6.7059337983343402e-08  2.5218541802047734e-08  -4.2684554444256391e-08  2.8572435773791857e-08  6.8520772531116540e-08  4.3140987397330928e-09  -7.7176379224560174e-08  -7.0292328887905401e-08  3.9730181711442911e-08  4.9413689712709369e-08  -2.3810051470095000e-07  7.9265745104137994e-08  2.3214583013613155e-08  -6.3397897915780821e-08  -2.4315362387056122e-08  -2.6319387338841693e-08  -7.4079387633327579e-08  -1.9745857214143358e-06  -5.6253633834963329e-07  -4.7465780235400600e-08  -4.6769346020187341e-08  -3.7715142654626385e-08  -4.0503461231444315e-08  -1.5839253943650213e-07  6.1564085880494559e-08  -1.0542800445565093e-07  6.2250004226391505e-08  -2.5796310629603786e-08  -7.9981398086046935e-08  1.0731375438264582e-08  -3.7186156029201557e-08  -4.0211381948513365e-08  -4.9159287848274611e-08  7.5652196464787523e-08  1.0224528126861110e-07  5.7297400007508684e-08  3.7311872360152390e-08  6.0900636668181729e-08  -5.2079092125472918e-08  1.8059423215367544e-07  -1.4711361981487387e-08  -1.1867504283509954e-06  -1.6788653716949472e-07  -2.1578308215877286e-07  -3.4694553850398600e-08  -1.1047733302458315e-09  -7.7733002240306954e-07  2.9461448335655508e-08  -2.9666830544383760e-06  -1.0243620080415698e-06  -2.1621756677499496e-06  4.9629616802752328e-05  -5.3344992923892680e-08  -4.0984756789823575e-08  -3.4919385766872916e-08  1.3788091366505968e-08  6.0187797637666041e-09  -5.9504910429246321e-08  8.1795646648183188e-08  1.0105168857547754e-07  7.8382227581093574e-06  -1.2046528884411976e-05  -3.0713733331094088e-06  1.4160038944930431e-06  1.1987986768755600e-07  4.0742778051182414e-07  -1.2013382280598898e-07  7.1715884301379434e-07  2.9426314111859992e-06  -7.1938279587591249e-06  -6.1543714235532451e-04  -1.8659600445545465e-06  1.2503502760585970e-08  5.4076278571831542e-08  7.7916550742100444e-06  1.1103754567585722e-05  4.3287062469272303e-05  2.6470089814051552e-08  5.2190985339545403e-05  -1.1491515070219855e-07  -2.2553851917504064e-08  -6.7889393940269893e-04  1.9722183677104508e-08  -4.8784093463545097e-09  -8.7043985124946419e-08  -9.2513973734341830e-08  -1.2292329682372632e-08  -2.5460334178587217e-08  7.6003163512214764e-08  1.3762339707147158e-07  -2.8941090472933203e-08  2.0183069944688552e-08  -1.5328220476312223e-08  -1.1238095240897086e-06  -3.2836194039180875e-07  8.7362378094605222e-08  -2.6641176684527651e-09  -3.3614057516994592e-05  -1.3439283333397427e-05  5.0378567844655830e-08  -3.5445440075342904e-08  6.8135924095403502e-08  -5.2271155888452526e-08  1.1518531939548919e-07  -8.8643075410739911e-08  4.0382689431801166e-08  -1.2132021295225606e-05  -5.8161950141439513e-08  2.5547629607451600e-08  -1.1731969147810405e-08  5.6543196040310840e-05  -2.3823211533236060e-06  -1.6590712854334064e-08  2.4558449490217176e-08  -2.3321466053959027e-08  1.1788857796048669e-09  6.8172007950899087e-08  3.8826104919362545e-09  -3.2261612219588530e-08  -6.0521479079116458e-08  4.6242756462919230e-08  -2.4883525180564237e-08  -2.6197735659129632e-05  -1.5439453850070835e-07  -1.1936049780348966e-06  -1.4237168849807889e-08  -9.8196548735557592e-08  -9.2265254319822168e-07  8.1147604391507230e-08  8.7631336460050196e-08  2.3763999016402620e-07  1.1882299548108308e-07  6.4915971668282928e-05  -7.3236529705293519e-07  -7.1395006088595603e-08  -6.0757929004897720e-07  -2.5690335171524293e-06  -1.4464957156124073e-08  -2.3341796795216775e-08  -3.6717924974609642e-08  -1.8346896817746209e-08  -4.2016722247935771e-08  -3.8360556932443787e-09  3.5165519750965396e-08  -7.7230120533243222e-08  -1.1020493774048748e-06  -1.3175152117496046e-06  -1.7289077206126422e-08  -6.3140874065341236e-08  2.9995454881088070e-08  -3.6995236704663521e-08  -9.7299202206397613e-05  -3.2165755682876009e-06  2.0915915021841594e-08  -4.6281038557276820e-07  -1.8705736802290936e-06  1.2723105625396221e-07  -4.2667402767627542e-08  -4.3613004645269647e-06  -7.4904258635485803e-05  -8.8051633001267452e-05  -6.9171792934116254e-05  6.9308807599567855e-08  -7.8907538950841387e-09  9.6983906566933783e-08  1.1417591063497445e-08  -4.3661897105797725e-09  1.1026841793880302e-08  -8.9432141482745436e-08  1.8738743917791089e-08  2.3210172257202510e-08  1.3423960198839369e-08  -8.9080568715423294e-08  2.4580458570341988e-08  1.6060379989511058e-07  6.5396072442804958e-08  3.8099490777401644e-08  -2.4403378425979705e-06  -1.7100361553421392e-06  2.2282937784949378e-08  2.1935519758761319e-08  -5.8957820139155628e-08  5.7719710142720760e-08  7.2320019486061814e-08  2.6222531892298483e-08  -1.4832656097597216e-07  -1.3052302542077415e-07  3.2376566177829690e-08  6.5614035541269196e-08  -6.7932960266060663e-08  -7.0049822100586405e-08  5.0756124513011091e-08  -6.3934298032513857e-10  -2.6330419572138598e-06  -8.3832590257450254e-06  1.7300766321244319e-04  -3.0321856198821598e-07  -1.0227995118373783e-07  -7.4800294055026995e-08  -4.7338773491567804e-08  -3.2007663976855401e-06  -1.6134184073704963e-07  7.6182844016693846e-08  -2.9604734333988457e-05  -8.8908452835317195e-07  -2.3904155895700784e-08  -1.0197359123689675e-09  7.6036458943850891e-08  -1.2131222340215942e-07  9.4185042406332438e-08  9.5710813892983107e-08  7.8367146977266066e-08  6.8290285422267510e-08  4.2331975286267563e-08  1.2700429857490264e-08  8.8818005255324900e-08  -8.1931317876657838e-08  5.5278370702023328e-08  -1.3588232108073587e-07  6.5155001112108272e-08  1.5073859593438094e-07  -1.6769154120712497e-08  5.1536494216415314e-08  5.8969131037028180e-08  2.2467208426856681e-07  -3.2854287058312607e-08  -2.0393078719177908e-07  -1.5264296221585935e-07  8.3444018222056425e-08  3.1514493731307986e-08  -3.1256393308606985e-09  -8.6846375514425707e-09  5.3728251147563721e-08  -6.58205672445657