<?xml version="1.0"?>
<VTKFile type="UnstructuredGrid"  version="0.1"  >
<UnstructuredGrid>
<Piece  NumberOfPoints="16808" NumberOfCells="31534">
<Points>
<DataArray  type="Float64"  NumberOfComponents="3"  format="ascii">0 12.7 0  0 0 0  0.2 0 0  0.2 12.7 0  0.2 6.35 0  0 6.35 0  0 3.175 0  0.2 3.175 0  0 9.524999999999999 0  0.2 9.524999999999999 0  0 11.1125 0  0.2 11.1125 0  0.2 1.5875 0  0 1.5875 0  0.2 4.762499999999999 0  0 4.762499999999999 0  0.2 7.937499999999999 0  0 7.937499999999999 0  0.2 10.31875 0  0 10.31875 0  0.2 11.90625 0  0 11.90625 0  0 5.556249999999999 0  0.2 5.556249999999999 0  0 0.79375 0  0.2 0.79375 0  0 2.38125 0  0.2 2.38125 0  0.2 7.143749999999999 0  0 7.143749999999999 0  0 8.731249999999999 0  0.2 8.731249999999999 0  0 3.96875 0  0.2 3.96875 0  0.2 11.509375 0  0 11.509375 0  0 10.715625 0  0.2 10.715625 0  0 7.540624999999999 0  0.2 7.540624999999999 0  0.2 2.778125 0  0 2.778125 0  0.2 5.159374999999999 0  0 5.159374999999999 0  0.2 5.953125 0  0 5.953125 0  0.2 8.334375 0  0 8.334375 0  0.2 0.396875 0  0 0.396875 0  0 1.190625 0  0.2 1.190625 0  0.2 3.571874999999999 0  0 3.571874999999999 0  0.2 4.365625 0  0 4.365625 0  0.2 1.984375 0  0 1.984375 0  0.2 6.746874999999999 0  0 6.746874999999999 0  0.2 9.128124999999999 0  0 9.128124999999999 0  0.2 9.921874999999998 0  0 9.921874999999998 0  0 12.303125 0  0.2 12.303125 0  0 11.7078125 0  0.2 11.7078125 0  0.2 10.5171875 0  0 10.5171875 0  0.2 8.135937499999999 0  0 8.135937499999999 0  0.2 5.754687499999999 0  0 5.754687499999999 0  0 5.3578125 0  0.2 5.3578125 0  0 7.739062499999999 0  0.2 7.739062499999999 0  0 3.770312499999999 0  0.2 3.770312499999999 0  0.2 1.3890625 0  0 1.3890625 0  0.2 2.579687499999999 0  0 2.579687499999999 0  0 2.9765625 0  0.2 2.9765625 0  0 4.1671875 0  0.2 4.1671875 0  0 0.1984375 0  0.2 0.1984375 0  0 0.5953124999999999 0  0.2 0.5953124999999999 0  0.2 1.7859375 0  0 1.7859375 0  0 2.1828125 0  0.2 2.1828125 0  0.2 0.9921874999999999 0  0 0.9921874999999999 0  0.2 12.1046875 0  0 12.1046875 0  0.2 12.5015625 0  0 12.5015625 0  0 9.723437499999999 0  0.2 9.723437499999999 0  0 8.9296875 0  0.2 8.9296875 0  0 9.326562499999998 0  0.2 9.326562499999998 0  0 6.548437499999999 0  0.2 6.548437499999999 0  0 6.945312499999999 0  0.2 6.945312499999999 0  0 3.3734375 0  0.2 3.3734375 0  0 8.532812499999999 0  0.2 8.532812499999999 0  0 6.1515625 0  0.2 6.1515625 0  0 4.564062499999999 0  0.2 4.564062499999999 0  0 4.960937499999999 0  0.2 4.960937499999999 0  0.2 7.342187499999999 0  0 7.342187499999999 0  0 10.1203125 0  0.2 10.1203125 0  0.2 10.9140625 0  0 10.9140625 0  0 11.3109375 0  0.2 11.3109375 0  0.1 10.81484375 0  0.1 12.00546875 0  0.1 5.85390625 0  0.1 8.235156249999999 0  0.1 8.632031249999999 0  0.1 8.83046875 0  0.1 9.425781249999998 0  0.1 9.624218749999999 0  0.1 10.21953125 0  0.1 10.41796875 0  0.1 10.61640625 0  0.1 11.60859375 0  0.1 11.80703125 0  0.1 11.41015625 0  0.1 5.258593749999999 0  0.1 7.639843749999999 0  0.1 12.7 0  0.1 4.067968749999999 0  0.1 2.87734375 0  0.09999999999999999 2.67890625 0  0.1 3.86953125 0  0.1 1.88515625 0  0.1 0.6945312499999999 0  0.1 1.28984375 0  0.1 1.48828125 0  0.1 2.08359375 0  0.1 0 0  0.1 0.29765625 0  0.1 0.8929687499999999 0  0.09999999999999999 1.09140625 0  0.1 0.4960937499999999 0  0.1 7.242968749999999 0  0.1 4.861718749999999 0  0.1 5.060156249999999 0  0.1 4.464843749999999 0  0.1 4.663281249999999 0  0.09999999999999999 3.47265625 0  0.1 6.846093749999999 0  0.1 7.044531249999999 0  0.1 6.449218749999999 0  0.1 6.647656249999999 0  0.09999999999999999 6.250781249999999 0  0.1 6.05234375 0  0.09999999999999996 1.68671875 0  0.1 4.266406249999999 0  0.1 3.07578125 0  0.09999999999999999 2.28203125 0  0.09999999999999996 2.48046875 0  0.1 3.671093749999999 0  0.1 3.27421875 0  0.09999999999999999 5.457031249999999 0  0.09999999999999996 5.65546875 0  0.09999999999999999 7.441406249999999 0  0.09999999999999999 7.838281249999999 0  0.09999999999999996 8.036718749999999 0  0.1 11.21171875 0  0.1 11.01328125 0  0.1 10.02109375 0  0.1 8.43359375 0  0.1 9.227343749999999 0  0.1 9.02890625 0  0.1 9.82265625 0  0.1 12.40234375 0  0.1 12.20390625 0  0.1 12.5755843996063 0  0 0.09921874999999999 0  0.2 0.09921874999999999 0  0.09999999999999999 0.148828125 0  0.09922180175781284 7.143749999999999 0  0 7.639843749999999 0  0.2 7.639843749999999 0  0 5.258593749999999 0  0.1007781982421872 5.159374999999999 0  0.2 5.258593749999999 0  0.09922180175781285 11.90625 0  0.09922180175781285 11.509375 0  0.1007781982421872 11.7078125 0  0 11.41015625 0  0 11.60859375 0  0.2 11.41015625 0  0.2 11.60859375 0  0.09922180175781285 10.715625 0  0.1007781982421872 10.5171875 0  0.1007781982421872 10.31875 0  0 10.41796875 0  0.2 10.41796875 0  0 10.21953125 0  0.2 10.21953125 0  0.1007781982421872 9.524999999999999 0  0 9.624218749999999 0  0.2 9.624218749999999 0  0 9.425781249999998 0  0.2 9.425781249999998 0  0.1007781982421872 5.953125 0  0.09922180175781285 8.135937499999999 0  0.1007781982421872 8.731249999999999 0  0 8.83046875 0  0.2 8.83046875 0  0 8.632031249999999 0  0.2 8.632031249999999 0  0.2 8.235156249999999 0  0 8.235156249999999 0  0.2 5.85390625 0  0 5.85390625 0  0 11.80703125 0  0 12.00546875 0  0.2 11.80703125 0  0.2 12.00546875 0  0 10.61640625 0  0 10.81484375 0  0.2 10.61640625 0  0.2 10.81484375 0  0.09922180175781287 5.556249999999999 0  0.1007781982421872 11.1125 0  0.09922180175781285 8.334375 0  0.09922180175781285 8.9296875 0  0.09922180175781285 9.723437499999999 0  0.2 12.60078125 0  0 12.60078125 0  0.1007781982421874 1.984375 0  0.1007781982421874 1.3890625 0  0 2.67890625 0  0 2.87734375 0  0.1007781982421874 2.5796875 0  0.2 2.67890625 0  0.2 2.87734375 0  0 3.86953125 0  0 4.067968749999999 0  0.1007781982421874 3.7703125 0  0.2 3.86953125 0  0.2 4.067968749999999 0  0.09922180175781263 2.9765625 0  0 2.08359375 0  0.2 2.08359375 0  0.2 1.48828125 0  0 1.48828125 0  0 1.28984375 0  0.2 1.28984375 0  0 0.6945312499999999 0  0.2 0.6945312499999999 0  0.2 1.88515625 0  0 1.88515625 0  0.09922180175781251 0.9921874999999999 0  0.1007781982421875 0.5953124999999999 0  0 0.29765625 0  0.2 0.29765625 0  0.1007781982421875 0.396875 0  0 0.4960937499999999 0  0.2 0.4960937499999999 0  0.2 1.09140625 0  0 1.09140625 0  0.1007781982421876 0.7937499999999998 0  0 0.8929687499999999 0  0.2 0.8929687499999999 0  0.1007781982421876 7.937499999999998 0  0 8.036718749999999 0  0.2 8.036718749999999 0  0 7.83828125 0  0.2 7.83828125 0  0.1007781982421876 7.739062499999999 0  0.09922180175781239 7.540624999999999 0  0.2 7.441406249999998 0  0.09922180175781239 7.3421875 0  0 7.441406249999998 0  0 5.655468749999999 0  0.09922180175781239 5.754687499999999 0  0.2 5.655468749999999 0  0 5.45703125 0  0.2 5.45703125 0  0.1007781982421876 5.3578125 0  0.1007781982421876 3.175 0  0.09922180175781241 3.571874999999999 0  0 3.671093749999999 0  0.2 3.671093749999999 0  0.1007781982421876 2.38125 0  0 2.48046875 0  0.2 2.48046875 0  0 2.28203125 0  0.2 2.28203125 0  0.1007781982421876 2.1828125 0  0 3.07578125 0  0.09922180175781242 1.5875 0  0 1.68671875 0  0.09922180175781239 1.7859375 0  0.2 1.68671875 0  0 6.05234375 0  0 6.250781249999999 0  0 6.44921875 0  0.2 6.05234375 0  0.2 6.250781249999999 0  0.1007781982421876 6.349999999999999 0  0.2 6.44921875 0  0.1007781982421876 6.548437499999999 0  0.09922180175781242 6.746874999999999 0  0.1007781982421876 6.945312499999998 0  0 6.647656249999999 0  0 6.84609375 0  0.2 6.647656249999999 0  0.2 6.84609375 0  0 3.27421875 0  0 3.47265625 0  0.2 3.07578125 0  0.2 3.27421875 0  0.1007781982421876 3.3734375 0  0.2 3.47265625 0  0.09922180175781244 4.167187499999999 0  0 4.266406249999999 0  0 4.46484375 0  0.2 4.266406249999999 0  0.1007781982421876 4.365625 0  0.2 4.46484375 0  0 5.060156249999999 0  0.2 5.060156249999999 0  0.1007781982421876 4.564062499999999 0  0.09922180175781242 4.762499999999999 0  0.1007781982421876 4.960937499999998 0  0 4.663281249999999 0  0 4.86171875 0  0.2 4.663281249999999 0  0.2 4.86171875 0  0.2 7.044531249999999 0  0.2 7.242968749999999 0  0 7.044531249999999 0  0 7.242968749999999 0  0.09922180175781239 1.190625 0  0.09922180175781241 3.96875 0  0.09922180175781241 2.778125 0  0.09922180175781195 12.303125 0  0.100778198242188 12.1046875 0  0 12.20390625 0  0 12.40234375 0  0.2 12.20390625 0  0.2 12.40234375 0  0 9.028906249999999 0  0 9.227343749999999 0  0.09922180175781198 9.128125000000001 0  0.09922180175781198 9.3265625 0  0.2 9.028906249999999 0  0.2 9.227343749999999 0  0 8.43359375 0  0.09922180175781198 8.5328125 0  0.2 8.43359375 0  0 9.822656249999998 0  0 10.02109375 0  0.09922180175781198 9.921875 0  0.09922180175781198 10.1203125 0  0.2 9.822656249999998 0  0.2 10.02109375 0  0.09922180175781196 10.9140625 0  0 11.01328125 0  0 11.21171875 0  0.09922180175781198 11.3109375 0  0.2 11.01328125 0  0.2 11.21171875 0  0.09922180175781198 6.1515625 0  0.08672180175781248 12.48896407480315 0  0.07461090087890626 0.2232421875 0  0.1253890991210938 0.0744140625 0  0.05038909912109379 4.3164077878937 0  0.1496109008789064 5.605467212106299 0  0.1496109008789064 8.0867202878937 0  0.05038909912109358 5.1101577878937 0  0.05038909912109338 4.514845287893699 0  0.05038909912109338 6.896095287893699 0  0.05038909912109338 6.499220287893699 0  0.05000000000000002 6.002734375 0  0.05000000000000002 3.819921874999999 0  0.1496109008789064 5.5070327878937 0  0.1499999999999996 7.391796874999998 0  0.05038909912109338 4.911720287893699 0  0.1496109008789069 9.971092212106297 0  0.1496109008789069 9.177342212106298 0  0.05038909912109314 12.0554702878937 0  0.149610900878906 12.2539077878937 0  0.05 12.7 0  0.1374999999999996 12.63779219980315 0  0.1496109008789064 9.772654712106299 0  0.1496109008789064 9.6742202878937 0  0.1496109008789064 8.978904712106299 0  0.1496109008789064 8.880470287893701 0  0.1496109008789064 8.383592212106299 0  0.1496109008789064 
[...]
<PointData  Scalars="sigma (Pa)"> 
<DataArray  type="Float64"  Name="sigma (Pa)"  format="ascii">9.0575442788437977e-03  8.7933792873215472e-03  -7.9934004811174752e-03  -8.7368231703261433e-03  -3.7191458559754056e-06  3.1481937182501330e-09  1.2326611773200050e-08  -1.1222521244628729e-07  1.0037341079230648e-07  5.7247537805388558e-08  -1.6549567879089500e-07  -6.5443319076907388e-07  6.5931616155129407e-08  -7.8461650584301200e-08  1.9177028109048728e-08  1.7116248698895132e-08  -9.8453563961609329e-07  -4.2954373832916735e-07  -1.1846416051050539e-08  -1.0746828410289960e-09  1.9530653810719920e-07  1.6527459156609653e-07  6.0454356714570865e-08  -4.6661938009255195e-05  -5.2819300332070050e-08  6.4508894498523860e-08  1.3004015651377593e-08  -1.0124782633308918e-07  -2.4042630079009974e-05  4.5642392590826086e-08  -2.0790778628424068e-07  -5.8663440141238458e-09  -3.3483109420681684e-07  -5.4287810252830932e-08  1.0198879570120276e-07  3.7574151366227922e-07  1.4514788559544744e-08  -2.6918285034067915e-09  2.1015516295396842e-06  -1.7515020032291304e-04  -4.6707711594500941e-08  -2.4416136586122886e-07  1.5518822193584476e-04  -3.6191435925709832e-06  -1.1008831953842586e-05  1.1075546522153710e-08  6.4877334684601105e-08  -6.0967307040474273e-08  1.6337603800729395e-08  -3.1824139045093945e-08  -4.3299298960655845e-08  -5.6673335444988975e-08  -1.0599294321200074e-08  1.2119236658610886e-07  -3.5066684468605901e-08  -1.5351807996927668e-08  -1.1899516932880942e-07  -1.4587269036292023e-08  6.5042649199829953e-06  1.1365910221168371e-10  3.6471341311407420e-09  5.9001233589753047e-08  8.6497932858749729e-09  1.1307388700193556e-07  8.3663821713051552e-08  3.9247972320203608e-07  9.3896821738571658e-08  -9.5646665367087971e-08  6.8646467051906025e-08  -2.4090183353712707e-07  -1.9243131774979661e-07  -5.9581747123480318e-07  -2.2582714764300615e-05  8.5510649132698591e-08  3.5411420411800274e-07  -1.6477254084240587e-04  -8.7132987584488707e-07  5.6301334053686909e-05  -5.7494435520940789e-08  1.2196893410607634e-07  -2.9785448670579023e-08  2.7037425346313610e-07  2.1469467529052686e-07  6.2948853301229069e-08  1.7857465800937800e-08  -1.9655427952178585e-08  -4.2164831192978897e-08  1.7953014981304560e-07  1.3585111559386945e-07  2.8896907445407351e-07  -5.1223826447995236e-08  4.3957874903240699e-08  -9.2235662589979727e-08  -2.1216158993996638e-08  1.8206414495916976e-07  -9.1178068764477350e-08  3.3705035714977547e-09  1.0122867207398036e-07  -6.9910558532323571e-09  4.1812835265976494e-08  -5.4475102762956777e-08  1.0976067494658817e-07  -1.6124324448913423e-08  9.7582198647164350e-08  1.0555597965858957e-07  7.1294545126582292e-08  5.0262163512518645e-08  -1.4936741950564847e-07  -1.0685255188369872e-08  -3.8094196967113533e-06  -3.2907009529828073e-08  -1.1770290332779147e-05  8.3397824802977652e-08  2.6552505226520086e-08  4.4274003409522306e-08  -9.5717247435895402e-08  2.2177522987352705e-08  4.4949216085786713e-06  -5.7479464684061919e-08  -3.0060517673151635e-07  -3.5568640886420852e-07  -1.0946468600181680e-06  -4.9562179792935698e-05  -8.8189371023179843e-08  5.5160918293771627e-08  -1.5699587014196189e-07  6.1702444021302979e-09  3.5072182433003988e-09  -3.1724787482437500e-07  8.1659165263087103e-08  -1.1845136201107612e-07  3.4907490008830597e-08  -4.2019981207380754e-06  -1.6568600390466036e-07  5.2906539109042377e-08  8.3513376011758355e-08  -1.8796104572579773e-07  4.7618120477006161e-09  -9.4892889214584610e-08  1.7961272540937400e-07  4.5583721422402283e-09  -1.0787390384476102e-07  4.0646181008759320e-08  -2.0360429319856005e-08  -1.9752944921857187e-04  -2.1555395466854615e-04  1.9704662488235853e-05  -2.0469766933583039e-07  5.4911213198921889e-08  -1.3506404994414722e-07  -1.4516268902340002e-08  2.3066767862145070e-08  -1.8785831749588061e-07  1.4739567778422262e-07  -1.0208450000681512e-07  -3.4983318526263587e-08  5.3260837728336212e-05  2.3940195282556413e-07  -1.1413781546324755e-07  1.9615784500656132e-07  -4.8137029552066338e-08  -1.0109126005974724e-05  -3.8775531148765232e-06  3.4419246600897880e-04  2.2148461286265104e-07  9.3279253951822003e-08  -2.4448362902995814e-07  -2.5314571899579175e-06  -4.5762551075229942e-06  -9.5090069823812856e-07  -1.5938162312499986e-06  -1.4801816143360242e-06  -2.3584357603165267e-06  -1.9644681329047806e-07  5.1794215885331699e-09  -1.0759953327193601e-07  1.9219451073455193e-08  1.7871518862000507e-08  8.7932960328411109e-08  2.9402054107320904e-07  -2.8947486677752734e-05  -8.7029279167195013e-06  -3.0887957225932617e-05  3.6934305230584889e-04  -3.5739903627615440e-06  8.3519561200372015e-08  -1.4693600950618371e-07  -1.4133472302930646e-07  3.8038245861126690e-08  -9.4205611075105811e-08  5.9354741668630621e-08  1.5021896703233219e-07  6.0818588691049308e-07  -1.8895811025052788e-08  -1.1812991833888283e-06  1.9414150641398059e-06  6.9580867416093328e-07  -8.5750464440367627e-07  -6.7116384694067545e-06  4.3309619690725697e-06  -2.8672324308399788e-04  -9.8825716007589262e-07  1.6927542683156648e-05  -2.6227082754345541e-04  -1.1131948767789537e-07  5.0672231972309176e-08  -4.9430058361576625e-08  -2.0232592811597492e-07  3.5915185301137706e-08  4.2755945240300046e-08  1.8989033281888984e-08  -2.4964340779832779e-07  6.1136290128564400e-08  -1.6144900574610540e-07  2.8123869242038734e-07  -6.1147797162933025e-08  -2.4704000349229611e-07  -9.1675298371742697e-08  2.6592317624957330e-07  -2.1223143284710706e-08  2.1660485471988605e-08  1.5013844713599942e-07  2.7940193024736075e-08  -3.1695971117868723e-06  -5.8184847133251946e-07  3.0854936958800420e-08  1.6498951099687937e-07  -1.5956849382219450e-07  3.8166748612038333e-08  -4.4522606357616782e-08  -9.6081427618971933e-08  -1.0999520061869152e-07  -1.5549210483910476e-05  8.3538285447773163e-09  -3.7615655214344237e-07  -5.7648274745281780e-08  1.0653447326539528e-07  -7.1767358130102049e-09  1.3744628553611606e-07  -2.6964788811641631e-07  9.3194199418556653e-09  5.7221518547387981e-09  -1.0169876255660061e-05  -4.2945166119969775e-08  -9.6137168533999914e-08  -6.2369810663385849e-08  -2.5311329973497284e-07  6.9108118865820928e-07  8.0731979337923856e-07  1.7682780892145868e-07  3.0843343163693645e-07  7.7562008462388764e-09  2.3745320734453702e-07  2.8817387773296456e-07  2.4980449509253171e-07  -1.3771418266619794e-09  5.3727810597853340e-08  -4.2971374444551797e-08  2.6465260989892332e-07  -1.6425911614730706e-08  -2.9186585850672331e-07  -2.6971239970819481e-08  -1.5594168640090494e-07  1.4961016185201697e-07  1.5333766749628995e-07  2.3795164098057127e-07  -6.2811818545241655e-08  6.9095889190588476e-09  -1.0199405154902860e-07  -7.9471970544640407e-08  7.7808755473837182e-08  -2.7352275171533865e-07  -6.1933770650255114e-08  9.9340355866510912e-09  -5.4758202074450607e-08  3.9894809453179389e-07  1.8166222080773814e-07  2.8042344963759975e-07  6.4839687011698577e-08  1.8621743498204083e-07  -5.3869226081522999e-09  1.3693775237621850e-07  1.1614411805214322e-07  -2.5049710822912036e-08  3.2375745476141044e-05  -4.7741371281233050e-08  3.7221524336395841e-08  -3.5348356630434743e-06  -9.0769158193564108e-05  1.4856638860035882e-05  -9.4913913295926994e-05  -9.1238746867450287e-05  -1.0204743327062193e-05  -9.2520123605228791e-08  -5.3268459515934632e-08  -6.4260756885638886e-06  -9.3881632319745288e-05  1.8902456199157368e-07  -8.5105813684465705e-05  -9.0824828817023649e-05  1.6850945821245398e-07  -1.0529840004491406e-07  9.9544967671499168e-08  -1.4802193675285446e-08  1.9155085439083846e-08  -1.2788565021709691e-07  9.8350704180879601e-08  -5.8680376552510434e-08  -4.7763071361309306e-11  1.5714664275467342e-07  -3.2305073267088530e-08  8.9420591260369751e-08  8.5823747378022609e-08  1.5970877684961904e-07  3.0014945111041754e-07  -2.6230403777102135e-08  -9.0147367663865495e-10  5.9258678458037786e-09  -7.9245548140039862e-06  -4.7982340754760953e-06  -1.0522859060250802e-06  -3.4730951999804062e-06  -1.0819471973331175e-06  -1.2290256722509297e-06  -3.4282134615253452e-06  1.5698768411053740e-08  2.0225577524170732e-09  -4.9440419076964450e-06  -8.5587039366087412e-06  -9.8649480792813898e-08  -4.6228404197924374e-08  6.6468043099267888e-08  7.6669037523623762e-08  6.7205220424345457e-08  1.7778058659536977e-07  7.8175918981237623e-09  3.8702027917944466e-07  4.4908501168325913e-08  -5.2530946279631918e-08  -4.4831882004750018e-08  1.3925312072192848e-07  -3.9885726589520946e-06  -6.9474411919378225e-05  3.3150093566672306e-07  -9.4887648447016762e-07  2.7485688890875675e-05  -7.2447051970792719e-08  -2.3851229167783836e-07  2.0375282076064995e-07  1.5619402809697685e-07  -1.6665710434476131e-05  1.5303314366369673e-04  3.0893398522628347e-08  -1.7351306529648348e-08  2.0574377090057874e-08  2.9426316359666438e-08  2.2604732112544572e-07  -1.2423640707065125e-07  1.8352703597563592e-07  -2.9698802675249454e-07  -5.2472594273095768e-07  -3.1501912477138720e-08  7.7905451886630311e-08  6.4003950749608514e-08  -1.4287456375792187e-07  -1.3625119380561857e-07  -1.9491363037800806e-08  8.8272503936400504e-08  1.6076998546600762e-07  -4.4553229126759618e-07  -8.6753118064191929e-08  4.7166544713656018e-08  8.4157093615857655e-08  -7.2705316018064357e-09  -9.4732624377673295e-08  7.1949089710580216e-09  2.5183421496024357e-08  3.3489611226360025e-07  -1.8622549053398772e-07  -4.5486855987768692e-07  -7.4343800655275841e-08  2.6744700026948963e-09  2.2982217885739339e-08  5.1072989174179431e-08  -1.2005132653255261e-06  -1.1690125949986134e-06  -8.2739789066332027e-07  1.6210188264652517e-05  2.6519931584532540e-07  -8.4601262882378038e-06  -1.2193708064368571e-06  9.8483559142384830e-05  7.8234735939336950e-08  -8.0864163797903163e-07  -2.5256282383886993e-07  -7.1143932652031308e-07  1.1562145311022914e-07  -3.7469785391369985e-05  -4.0705960614692952e-05  -6.3778318380874207e-08  1.6366643340289595e-07  -9.1957657320945014e-08  -7.3681880617576009e-08  2.9123056664282178e-08  1.5648014123378438e-03  -5.7161669384107243e-06  1.5705077004519017e-07  -4.3612917969998227e-08  -2.2519729601975088e-08  -2.0175901960227986e-07  5.7967543315035849e-08  -3.0526711221080626e-07  6.3549006844772273e-08  1.4274561936729863e-07  6.0898026765808465e-08  -2.3927406876619354e-07  -1.0035253771118440e-07  -8.0276005134003814e-09  -5.5138048580361514e-08  -9.0139226044897664e-07  -1.0824278055295001e-05  9.3464639180739084e-09  4.3745682320987402e-08  6.3747580404662957e-08  1.2850035857956924e-07  2.1447740014082239e-07  -1.5280417813471573e-07  -1.6802501537751467e-07  -2.3912839033527923e-07  -3.0260572921906654e-08  2.9277465766665146e-07  -6.7717713806687262e-08  5.7777485298601204e-08  -5.0120263268710624e-08  1.7054628069347173e-07  -2.7634662648095977e-08  6.6551097179385226e-08  -1.5416413620979981e-07  -6.0819491559015939e-05  -5.0961329832186942e-05  -2.2883432852416978e-04  -6.4390530317598387e-05  -1.9852713730885382e-07  -7.7228397679259324e-08  5.7592436463585746e-05  -1.2766440459349977e-07  -7.0669530703311546e-10  -1.7898087354896188e-05  -3.2506662020245449e-07  -1.1708410150584981e-05  -2.0114364636135649e-07  -3.8990908120211383e-06  -1.4112617135262736e-07  -2.0368431679831298e-07  1.5654836537073818e-07  1.3880754870079928e-07  -1.5962327027576995e-07  3.3528461394714037e-08  1.1972803096349548e-07  -5.0162091162959612e-08  8.3753624992843511e-08  1.3532681565029368e-03  3.5482379259608158e-08  2.5851976429127717e-07  4.7481883821567643e-08  1.1896945957444787e-07  9.7856917466729399e-08  -8.7294240210123593e-08  -2.7967162609775767e-08  9.0730135957306412e-08  3.4457889855422092e-08  -1.5227312092083529e-07  1.9064385020890660e-07  -9.6690697044845367e-08  -9.3396043310452572e-09  4.4784640298041134e-08  2.7281391817728907e-07  1.4240364181271626e-07  1.4235315118969676e-07  8.5792195676771990e-08  -1.1694698130684959e-07  -1.4515662606067331e-07  1.9532611497686029e-08  -2.3487968184519568e-07  -1.6171171446161962e-07  -1.0627358025981823e-07  5.1325964242333076e-08  1.1118978567690636e-08  1.2537348663278016e-07  -1.0172968720590963e-06  5.4461416088755111e-08  5.3113821597623598e-05  -3.3725290454752096e-07  -1.7671623160620464e-05  1.4017393698603259e-07  -2.5705855612218043e-07  -9.2349801526980590e-05  -3.6115153739429461e-06  -4.2954851182884937e-06  -6.6245047187933304e-06  -1.3184416060250670e-06  -4.5690764819561119e-06  -1.5473128533342965e-05  1.0869064807448434e-04  -1.2457903234816893e-07  -3.9349630837879558e-08  2.0602826183980343e-07  -2.7472181286402853e-07  -1.1406089737570984e-07  3.1283593498646548e-07  -2.8019408604244749e-07  1.3437702565023686e-07  1.8576795702368556e-07  -9.2695802462626005e-08  -6.3840167360197773e-09  2.1156615436768886e-07  -1.4056529949557903e-07  -2.0945731667962009e-06  -2.3973559233122371e-07  -1.6270500548957326e-07  -1.6924957738184992e-08  -5.6947936560857315e-06  -1.0593569959280647e-06  1.4108618254907442e-08  9.7009476137374554e-08  -8.7891932263066737e-08  3.0422365966488470e-07  6.4886430810863910e-09  -7.6749485474970648e-08  2.1361474553317330e-07  1.3485106240506539e-08  3.6251390120681115e-08  -7.8336907404655877e-06  -2.0599499489629839e-07  2.5508645286349162e-08  5.3940326806900146e-08  2.8437435485922981e-07  1.5577998109288938e-07  2.7156425528845157e-07  1.0147699745007452e-07  4.6331157281231694e-08  -3.3023967375838204e-08  -3.4205657925137573e-08  2.1463846935974612e-07  -3.0747476361385305e-04  9.1275258350406794e-04  -2.4421337430408503e-06  -1.3731369916824579e-06  -3.2812709447348977e-08  8.8955144181330786e-08  -4.8921063314379086e-08  -2.0312044571907185e-07  -1.0603112844813763e-06  -2.3698417513773028e-07  -4.6758350991881992e-07  -3.8343396828161964e-07  -1.4212487000299143e-06  -8.3939366201689649e-06  3.2859934721307718e-08  1.0114410369836763e-04  1.2414102061597635e-07  1.4702891549573979e-07  -2.5336182209410470e-06  -8.5821512860364668e-05  -2.1427867553697473e-04  -1.3021339820762921e-06  -2.2767673007905167e-06  -1.6820841186544091e-05  -5.2743888675693688e-05  -3.3660560787939842e-04  -9.1355826950770546e-08  1.1911684621725292e-07  3.9970696691075352e-08  1.6917449324821741e-07  9.9739085499068666e-04  -1.3445724096811051e-06  5.0696608567549809e-08  1.3984455916782392e-07  5.2590356043949116e-08  -8.9013685612550697e-08  5.9584496990542893e-08  1.4289212057410984e-07  8.9965534647606130e-09  -1.6094238008181437e-07  -1.4658649514370399e-07  8.2852682582016368e-08  1.0304652264392462e-07  -4.9653098293193294e-07  1.6529946509340420e-07  4.8411366036454611e-08  -1.3220889793136563e-07  -5.0706870505847616e-08  -5.4886052792492651e-08  -1.5448394587002037e-07  -4.1177693931556677e-06  -1.1731043484450130e-06  -9.8984405658075297e-08  -9.7532097359577673e-08  -7.8650570441976137e-08  -8.4465215711231644e-08  -3.3030922746609401e-07  1.2838481751714511e-07  -2.1985776404039267e-07  1.2981523625128528e-07  -5.3795286514507160e-08  -1.6679191355010243e-07  2.2379069238191885e-08  -7.7547488823507689e-08  -8.3856232127685056e-08  -1.0251599188967076e-07  1.5776387815095278e-07  2.1322067684790604e-07  1.1948709155736380e-07  7.7809577277927558e-08  1.2700124523678391e-07  -1.0860487792957868e-07  3.7660832829347744e-07  -3.0678894727244680e-08  -2.4748303064356973e-06  -3.5010792479673072e-07  -4.4999063491351740e-07  -7.2351404317622764e-08  -2.3039072295733808e-09  -1.6210315667508165e-06  6.1438420533738646e-08  -6.1866734858289503e-06  -2.1361882031878847e-06  -4.5089666555628485e-06  1.0349680750035777e-04  -1.1124478834036956e-07  -8.5468990025286540e-08  -7.2820185272057886e-08  2.8753530286474963e-08  1.2551335946824976e-08  -1.2409054134700767e-07  1.7057535922936536e-07  2.1073156951850461e-07  1.6345704139078364e-05  -2.5121638300610737e-05  -6.4049927326246470e-06  2.9529118313740124e-06  2.4999555579394856e-07  8.4964336518706940e-07  -2.5052514862009067e-07  1.4955515594143927e-06  6.1365163915992185e-06  -1.5001893550475708e-05  -1.2834227548264503e-03  -3.8912431766475169e-06  2.6074605256337439e-08  1.1276980465609760e-07  1.6248592637431233e-05  2.3155591847423363e-05  9.0270146436099101e-05  5.5200306128761988e-08  1.0883824459181438e-04  -2.3964223827750569e-07  -4.7033332812633995e-08  -1.4157545425494470e-03  4.1128327135472826e-08  -1.0173233178141370e-08  -1.8152013214501183e-07  -1.9292717548487069e-07  -2.5634314961375093e-08  -5.3094550153383296e-08  1.5849577305524237e-07  2.8699757765444514e-07  -6.0353285545526831e-08  4.2089454152860475e-08  -3.1965167167116198e-08  -2.3435744126568646e-06  -6.8476075262914116e-07  1.8218405526034489e-07  -5.5556999325778216e-09  -7.0098217007109743e-05  -2.8026066019215010e-05  1.0505865815085663e-07  -7.3917294826400635e-08  1.4208957688989008e-07  -1.0900538572570165e-07  2.4020552985805675e-07  -1.8485485865532378e-07  8.4213416188428555e-08  -2.5299922752338403e-05  -1.2128993352214329e-07  5.3276577225548379e-08  -2.4465704732718447e-08  1.1791427494763901e-04  -4.9680544187175398e-06  -3.4598034973671951e-08  5.1213786727336673e-08  -4.8634211170697840e-08  2.4584243688410733e-09  1.4216482165645542e-07  8.0967112217889666e-09  -6.7277846607437726e-08  -1.2621052448194389e-07  9.6433879752361199e-08  -5.1891709324141326e-08  -5.4632338103444792e-05  -3.2197189557297910e-07  -2.4891247568218719e-06  -2.9689961841919082e-08  -2.0477749759095870e-07  -1.9240847623058195e-06  1.6922393330832645e-07  1.8274499594062632e-07  4.9557076309998356e-07  2.4779164958819161e-07  1.3537472715395856e-04  -1.5272629177742904e-06  -1.4888591375309220e-07  -1.2670360932836371e-06  -5.3574212784984518e-06  -3.0164982627053137e-08  -4.8676526477746508e-08  -7.6570978597616490e-08  -3.8260324656618290e-08  -8.7621011177788233e-08  -7.9995955456813328e-09  7.3333533383705436e-08  -1.6105449466935238e-07  -2.2981961214062921e-06  -2.7475250493166714e-06  -3.6054361642271347e-08  -1.3167295917189306e-07  6.2552043632306826e-08  -7.7149268853520417e-08  -2.0290619708403118e-04  -6.7077950602455039e-06  4.3617773481844477e-08  -9.6513743015215604e-07  -3.9008643778692744e-06  2.6532555242049031e-07  -8.8977922061626689e-08  -9.0949859965446089e-06  -1.5620414069695640e-04  -1.8362146454957144e-04  -1.4424974857820422e-04  1.4453548174177205e-07  -1.6455252690876287e-08  2.0224869283631993e-07  2.3810062523351247e-08  -9.1051735116571340e-09  2.2995165440184915e-08  -1.8650035154888120e-07  3.9077484001532556e-08  4.8402129087563954e-08  2.7994087080410198e-08  -1.8576719924732084e-07  5.1259699898346670e-08  3.3492064839893129e-07  1.3637588997962163e-07  7.9451984332325063e-08  -5.0890414379960050e-06  -3.5660819815658441e-06  4.6468488157975284e-08  4.5744006333044922e-08  -1.2294968269190043e-07  1.2036777946506844e-07  1.5081504345793567e-07  5.4683952961556268e-08  -3.0931779875548549e-07  -2.7219054182125637e-07  6.7517624594935794e-08  1.3683036969550416e-07  -1.4166630622943011e-07  -1.4608082730281823e-07  1.0584602013172274e-07  -1.3332768814651889e-09  -5.4909034593345037e-06  -1.7482314193657805e-05  3.6078740851893754e-04  -6.3232705285224130e-07  -2.1329312811575797e-07  -1.5598734556227647e-07  -9.8719487999196770e-08  -6.6748271012292452e-06  -3.3645969436219503e-07  1.5887034504762660e-07  -6.1737238607904291e-05  -1.8540826459820428e-06  -4.9849336997494950e-08  -2.1265081735993336e-09  1.5856518995531972e-07  -2.5298258000295394e-07  1.9641197898618971e-07  1.9959377745490502e-07  1.6342554624694811e-07  1.4241147576569305e-07  8.8278425617588422e-08  2.6485270569590927e-08  1.8521965651276170e-07  -1.7085826211705220e-07  1.1527662663309535e-07  -2.8336682184846151e-07  1.3587319507949950e-07  3.1434785804747145e-07  -3.4970132254981981e-08  1.0747337706547441e-07  1.2297327937996596e-07  4.6852757537722286e-07  -6.8513871141538751e-08  -4.2527410924352586e-07  -3.1831904981645982e-07  1.7401281924221933e-07  6.5719842815727408e-08  -6.5181500975032636e-09  -1.8110802617428754e-08  1.1204402106601297e-07  -1.37261103007182