<?xml version="1.0"?>
<VTKFile type="UnstructuredGrid"  version="0.1"  >
<UnstructuredGrid>
<Piece  NumberOfPoints="16808" NumberOfCells="31534">
<Points>
<DataArray  type="Float64"  NumberOfComponents="3"  format="ascii">0 12.7 0  0 0 0  0.2 0 0  0.2 12.7 0  0.2 6.35 0  0 6.35 0  0 3.175 0  0.2 3.175 0  0 9.524999999999999 0  0.2 9.524999999999999 0  0 11.1125 0  0.2 11.1125 0  0.2 1.5875 0  0 1.5875 0  0.2 4.762499999999999 0  0 4.762499999999999 0  0.2 7.937499999999999 0  0 7.937499999999999 0  0.2 10.31875 0  0 10.31875 0  0.2 11.90625 0  0 11.90625 0  0 5.556249999999999 0  0.2 5.556249999999999 0  0 0.79375 0  0.2 0.79375 0  0 2.38125 0  0.2 2.38125 0  0.2 7.143749999999999 0  0 7.143749999999999 0  0 8.731249999999999 0  0.2 8.731249999999999 0  0 3.96875 0  0.2 3.96875 0  0.2 11.509375 0  0 11.509375 0  0 10.715625 0  0.2 10.715625 0  0 7.540624999999999 0  0.2 7.540624999999999 0  0.2 2.778125 0  0 2.778125 0  0.2 5.159374999999999 0  0 5.159374999999999 0  0.2 5.953125 0  0 5.953125 0  0.2 8.334375 0  0 8.334375 0  0.2 0.396875 0  0 0.396875 0  0 1.190625 0  0.2 1.190625 0  0.2 3.571874999999999 0  0 3.571874999999999 0  0.2 4.365625 0  0 4.365625 0  0.2 1.984375 0  0 1.984375 0  0.2 6.746874999999999 0  0 6.746874999999999 0  0.2 9.128124999999999 0  0 9.128124999999999 0  0.2 9.921874999999998 0  0 9.921874999999998 0  0 12.303125 0  0.2 12.303125 0  0 11.7078125 0  0.2 11.7078125 0  0.2 10.5171875 0  0 10.5171875 0  0.2 8.135937499999999 0  0 8.135937499999999 0  0.2 5.754687499999999 0  0 5.754687499999999 0  0 5.3578125 0  0.2 5.3578125 0  0 7.739062499999999 0  0.2 7.739062499999999 0  0 3.770312499999999 0  0.2 3.770312499999999 0  0.2 1.3890625 0  0 1.3890625 0  0.2 2.579687499999999 0  0 2.579687499999999 0  0 2.9765625 0  0.2 2.9765625 0  0 4.1671875 0  0.2 4.1671875 0  0 0.1984375 0  0.2 0.1984375 0  0 0.5953124999999999 0  0.2 0.5953124999999999 0  0.2 1.7859375 0  0 1.7859375 0  0 2.1828125 0  0.2 2.1828125 0  0.2 0.9921874999999999 0  0 0.9921874999999999 0  0.2 12.1046875 0  0 12.1046875 0  0.2 12.5015625 0  0 12.5015625 0  0 9.723437499999999 0  0.2 9.723437499999999 0  0 8.9296875 0  0.2 8.9296875 0  0 9.326562499999998 0  0.2 9.326562499999998 0  0 6.548437499999999 0  0.2 6.548437499999999 0  0 6.945312499999999 0  0.2 6.945312499999999 0  0 3.3734375 0  0.2 3.3734375 0  0 8.532812499999999 0  0.2 8.532812499999999 0  0 6.1515625 0  0.2 6.1515625 0  0 4.564062499999999 0  0.2 4.564062499999999 0  0 4.960937499999999 0  0.2 4.960937499999999 0  0.2 7.342187499999999 0  0 7.342187499999999 0  0 10.1203125 0  0.2 10.1203125 0  0.2 10.9140625 0  0 10.9140625 0  0 11.3109375 0  0.2 11.3109375 0  0.1 10.81484375 0  0.1 12.00546875 0  0.1 5.85390625 0  0.1 8.235156249999999 0  0.1 8.632031249999999 0  0.1 8.83046875 0  0.1 9.425781249999998 0  0.1 9.624218749999999 0  0.1 10.21953125 0  0.1 10.41796875 0  0.1 10.61640625 0  0.1 11.60859375 0  0.1 11.80703125 0  0.1 11.41015625 0  0.1 5.258593749999999 0  0.1 7.639843749999999 0  0.1 12.7 0  0.1 4.067968749999999 0  0.1 2.87734375 0  0.09999999999999999 2.67890625 0  0.1 3.86953125 0  0.1 1.88515625 0  0.1 0.6945312499999999 0  0.1 1.28984375 0  0.1 1.48828125 0  0.1 2.08359375 0  0.1 0 0  0.1 0.29765625 0  0.1 0.8929687499999999 0  0.09999999999999999 1.09140625 0  0.1 0.4960937499999999 0  0.1 7.242968749999999 0  0.1 4.861718749999999 0  0.1 5.060156249999999 0  0.1 4.464843749999999 0  0.1 4.663281249999999 0  0.09999999999999999 3.47265625 0  0.1 6.846093749999999 0  0.1 7.044531249999999 0  0.1 6.449218749999999 0  0.1 6.647656249999999 0  0.09999999999999999 6.250781249999999 0  0.1 6.05234375 0  0.09999999999999996 1.68671875 0  0.1 4.266406249999999 0  0.1 3.07578125 0  0.09999999999999999 2.28203125 0  0.09999999999999996 2.48046875 0  0.1 3.671093749999999 0  0.1 3.27421875 0  0.09999999999999999 5.457031249999999 0  0.09999999999999996 5.65546875 0  0.09999999999999999 7.441406249999999 0  0.09999999999999999 7.838281249999999 0  0.09999999999999996 8.036718749999999 0  0.1 11.21171875 0  0.1 11.01328125 0  0.1 10.02109375 0  0.1 8.43359375 0  0.1 9.227343749999999 0  0.1 9.02890625 0  0.1 9.82265625 0  0.1 12.40234375 0  0.1 12.20390625 0  0.1 12.5755843996063 0  0 0.09921874999999999 0  0.2 0.09921874999999999 0  0.09999999999999999 0.148828125 0  0.09922180175781284 7.143749999999999 0  0 7.639843749999999 0  0.2 7.639843749999999 0  0 5.258593749999999 0  0.1007781982421872 5.159374999999999 0  0.2 5.258593749999999 0  0.09922180175781285 11.90625 0  0.09922180175781285 11.509375 0  0.1007781982421872 11.7078125 0  0 11.41015625 0  0 11.60859375 0  0.2 11.41015625 0  0.2 11.60859375 0  0.09922180175781285 10.715625 0  0.1007781982421872 10.5171875 0  0.1007781982421872 10.31875 0  0 10.41796875 0  0.2 10.41796875 0  0 10.21953125 0  0.2 10.21953125 0  0.1007781982421872 9.524999999999999 0  0 9.624218749999999 0  0.2 9.624218749999999 0  0 9.425781249999998 0  0.2 9.425781249999998 0  0.1007781982421872 5.953125 0  0.09922180175781285 8.135937499999999 0  0.1007781982421872 8.731249999999999 0  0 8.83046875 0  0.2 8.83046875 0  0 8.632031249999999 0  0.2 8.632031249999999 0  0.2 8.235156249999999 0  0 8.235156249999999 0  0.2 5.85390625 0  0 5.85390625 0  0 11.80703125 0  0 12.00546875 0  0.2 11.80703125 0  0.2 12.00546875 0  0 10.61640625 0  0 10.81484375 0  0.2 10.61640625 0  0.2 10.81484375 0  0.09922180175781287 5.556249999999999 0  0.1007781982421872 11.1125 0  0.09922180175781285 8.334375 0  0.09922180175781285 8.9296875 0  0.09922180175781285 9.723437499999999 0  0.2 12.60078125 0  0 12.60078125 0  0.1007781982421874 1.984375 0  0.1007781982421874 1.3890625 0  0 2.67890625 0  0 2.87734375 0  0.1007781982421874 2.5796875 0  0.2 2.67890625 0  0.2 2.87734375 0  0 3.86953125 0  0 4.067968749999999 0  0.1007781982421874 3.7703125 0  0.2 3.86953125 0  0.2 4.067968749999999 0  0.09922180175781263 2.9765625 0  0 2.08359375 0  0.2 2.08359375 0  0.2 1.48828125 0  0 1.48828125 0  0 1.28984375 0  0.2 1.28984375 0  0 0.6945312499999999 0  0.2 0.6945312499999999 0  0.2 1.88515625 0  0 1.88515625 0  0.09922180175781251 0.9921874999999999 0  0.1007781982421875 0.5953124999999999 0  0 0.29765625 0  0.2 0.29765625 0  0.1007781982421875 0.396875 0  0 0.4960937499999999 0  0.2 0.4960937499999999 0  0.2 1.09140625 0  0 1.09140625 0  0.1007781982421876 0.7937499999999998 0  0 0.8929687499999999 0  0.2 0.8929687499999999 0  0.1007781982421876 7.937499999999998 0  0 8.036718749999999 0  0.2 8.036718749999999 0  0 7.83828125 0  0.2 7.83828125 0  0.1007781982421876 7.739062499999999 0  0.09922180175781239 7.540624999999999 0  0.2 7.441406249999998 0  0.09922180175781239 7.3421875 0  0 7.441406249999998 0  0 5.655468749999999 0  0.09922180175781239 5.754687499999999 0  0.2 5.655468749999999 0  0 5.45703125 0  0.2 5.45703125 0  0.1007781982421876 5.3578125 0  0.1007781982421876 3.175 0  0.09922180175781241 3.571874999999999 0  0 3.671093749999999 0  0.2 3.671093749999999 0  0.1007781982421876 2.38125 0  0 2.48046875 0  0.2 2.48046875 0  0 2.28203125 0  0.2 2.28203125 0  0.1007781982421876 2.1828125 0  0 3.07578125 0  0.09922180175781242 1.5875 0  0 1.68671875 0  0.09922180175781239 1.7859375 0  0.2 1.68671875 0  0 6.05234375 0  0 6.250781249999999 0  0 6.44921875 0  0.2 6.05234375 0  0.2 6.250781249999999 0  0.1007781982421876 6.349999999999999 0  0.2 6.44921875 0  0.1007781982421876 6.548437499999999 0  0.09922180175781242 6.746874999999999 0  0.1007781982421876 6.945312499999998 0  0 6.647656249999999 0  0 6.84609375 0  0.2 6.647656249999999 0  0.2 6.84609375 0  0 3.27421875 0  0 3.47265625 0  0.2 3.07578125 0  0.2 3.27421875 0  0.1007781982421876 3.3734375 0  0.2 3.47265625 0  0.09922180175781244 4.167187499999999 0  0 4.266406249999999 0  0 4.46484375 0  0.2 4.266406249999999 0  0.1007781982421876 4.365625 0  0.2 4.46484375 0  0 5.060156249999999 0  0.2 5.060156249999999 0  0.1007781982421876 4.564062499999999 0  0.09922180175781242 4.762499999999999 0  0.1007781982421876 4.960937499999998 0  0 4.663281249999999 0  0 4.86171875 0  0.2 4.663281249999999 0  0.2 4.86171875 0  0.2 7.044531249999999 0  0.2 7.242968749999999 0  0 7.044531249999999 0  0 7.242968749999999 0  0.09922180175781239 1.190625 0  0.09922180175781241 3.96875 0  0.09922180175781241 2.778125 0  0.09922180175781195 12.303125 0  0.100778198242188 12.1046875 0  0 12.20390625 0  0 12.40234375 0  0.2 12.20390625 0  0.2 12.40234375 0  0 9.028906249999999 0  0 9.227343749999999 0  0.09922180175781198 9.128125000000001 0  0.09922180175781198 9.3265625 0  0.2 9.028906249999999 0  0.2 9.227343749999999 0  0 8.43359375 0  0.09922180175781198 8.5328125 0  0.2 8.43359375 0  0 9.822656249999998 0  0 10.02109375 0  0.09922180175781198 9.921875 0  0.09922180175781198 10.1203125 0  0.2 9.822656249999998 0  0.2 10.02109375 0  0.09922180175781196 10.9140625 0  0 11.01328125 0  0 11.21171875 0  0.09922180175781198 11.3109375 0  0.2 11.01328125 0  0.2 11.21171875 0  0.09922180175781198 6.1515625 0  0.08672180175781248 12.48896407480315 0  0.07461090087890626 0.2232421875 0  0.1253890991210938 0.0744140625 0  0.05038909912109379 4.3164077878937 0  0.1496109008789064 5.605467212106299 0  0.1496109008789064 8.0867202878937 0  0.05038909912109358 5.1101577878937 0  0.05038909912109338 4.514845287893699 0  0.05038909912109338 6.896095287893699 0  0.05038909912109338 6.499220287893699 0  0.05000000000000002 6.002734375 0  0.05000000000000002 3.819921874999999 0  0.1496109008789064 5.5070327878937 0  0.1499999999999996 7.391796874999998 0  0.05038909912109338 4.911720287893699 0  0.1496109008789069 9.971092212106297 0  0.1496109008789069 9.177342212106298 0  0.05038909912109314 12.0554702878937 0  0.149610900878906 12.2539077878937 0  0.05 12.7 0  0.1374999999999996 12.63779219980315 0  0.1496109008789064 9.772654712106299 0  0.1496109008789064 9.6742202878937 0  0.1496109008789064 8.978904712106299 0  0.1496109008789064 8.880470287893701 0  0.1496109008789064 8.383592212106299 0  0.1496109008789064 
[...]
<PointData  Scalars="sigma (Pa)"> 
<DataArray  type="Float64"  Name="sigma (Pa)"  format="ascii">8.2261857377751608e-03  7.9862674753000233e-03  -7.2597157695021694e-03  -7.9349024354282809e-03  -3.3777791549470189e-06  2.8593158717114264e-09  1.1195206675621313e-08  -1.0192454271600465e-07  9.1160561750921244e-08  5.1993009090759151e-08  -1.5030544483596899e-07  -5.9436518577653026e-07  5.9880044552745887e-08  -7.1259955455268364e-08  1.7416927339329879e-08  1.5545027816659332e-08  -8.9416871764801067e-07  -3.9011754670589751e-07  -1.0758937721985239e-08  -9.7598776486105612e-10  1.7738007121817145e-07  1.5010464269612702e-07  5.4905478938407700e-08  -4.2379011073449017e-05  -4.7971208528992365e-08  5.8587859176816043e-08  1.1810388040784965e-08  -9.1954615917900394e-08  -2.1835845973241509e-05  4.1453010574448147e-08  -1.8882455980320848e-07  -5.3280545115964094e-09  -3.0409818494981638e-07  -4.9304985075482999e-08  9.2627628369106811e-08  3.4125357722460055e-07  1.3182493767344539e-08  -2.4447089105517917e-09  1.9086578260176760e-06  -1.5907381018493550e-04  -4.2420665818436250e-08  -2.2175071191632053e-07  1.4094406809242262e-04  -3.2869557768112387e-06  -9.9983719548103898e-06  1.0059027819268640e-08  5.8922490816678715e-08  -5.5371307289508816e-08  1.4838036169643663e-08  -2.8903117544590412e-08  -3.9325017882945925e-08  -5.1471493758134556e-08  -9.6264416267016944e-09  1.1006856020506961e-07  -3.1848074632605225e-08  -1.3942725251029139e-08  -1.0807305206336431e-07  -1.3248347149950031e-08  5.9072623815287510e-06  1.0325975642858122e-10  3.3124601275287991e-09  5.3585904538333983e-08  7.8558240049955086e-09  1.0269520042635253e-07  7.5984629379088556e-08  3.5645545984176382e-07  8.5278378843196840e-08  -8.6867604799222199e-08  6.2345640962113384e-08  -2.1879031175846478e-07  -1.7476865000861445e-07  -5.4112963503424017e-07  -2.0509930857861132e-05  7.7662173729301948e-08  3.2161131895554877e-07  -1.4964867771132608e-04  -7.9135369271503398e-07  5.1133642481164136e-05  -5.2217248746870769e-08  1.1077394936877187e-07  -2.7051539131178968e-08  2.4555761003801161e-07  1.9498866249173306e-07  5.7170992705237971e-08  1.6218250135479046e-08  -1.7851301896769328e-08  -3.8294663272433749e-08  1.6305176713001805e-07  1.2338184307648453e-07  2.6244566919666510e-07  -4.6522177603033915e-08  3.9923145708959314e-08  -8.3769700134563703e-08  -1.9268835574874309e-08  1.6535312556701933e-07  -8.2809189586723743e-08  3.0611333397047571e-09  9.1937263446855936e-08  -6.3493732202359912e-09  3.7974995282384495e-08  -4.9475034547709102e-08  9.9686147673511644e-08  -1.4644330567733722e-08  8.8625555345270326e-08  9.5867416731904475e-08  6.4750705144367035e-08  4.5648735008189140e-08  -1.3565752068406888e-07  -9.7047072014063799e-09  -3.4597669878611539e-06  -2.9886645887517182e-08  -1.0689938680699366e-05  7.5742970218708714e-08  2.4115281996852292e-08  4.0210184680764218e-08  -8.6931817467663445e-08  2.0141795524141225e-08  4.0823494718814456e-06  -5.2203595561976816e-08  -2.7301376883092518e-07  -3.2303920772232455e-07  -9.9417321442120045e-07  -4.5013050418857251e-05  -8.0094949506680488e-08  5.0097913856051703e-08  -1.4258573991127861e-07  5.6038530407057056e-09  3.1853085263306900e-09  -2.8812887538258082e-07  7.4163953699211235e-08  -1.0757915437766097e-07  3.1703462895098981e-08  -3.8163121797319834e-06  -1.5047822122350122e-07  4.8050443470513841e-08  7.5847952585274160e-08  -1.7070878717081499e-07  4.3247223843768783e-09  -8.6183052608893222e-08  1.6312678921871937e-07  4.1399970814777089e-09  -9.7972552767042719e-08  3.6915420293653523e-08  -1.8491624020589267e-08  -1.7939895068539794e-04  -1.9576905328948273e-04  1.7896044285124727e-05  -1.8590920297403627e-07  4.9871045481055602e-08  -1.2266699948903187e-07  -1.3183939874916947e-08  2.0949590045513959e-08  -1.7061548837841413e-07  1.3386676637187284e-07  -9.2714535375611229e-08  -3.1772337979099082e-08  4.8372222118490224e-05  2.1742813129426899e-07  -1.0366154245908816e-07  1.7815322781276747e-07  -4.3718709713429427e-08  -9.1812467369468469e-06  -3.5216468590938302e-06  3.1260031060367761e-04  2.0115523075346507e-07  8.4717528083048523e-08  -2.2204340345308822e-07  -2.2991040732769158e-06  -4.1562175215968216e-06  -8.6362101093830642e-07  -1.4475257961147091e-06  -1.3443210605024042e-06  -2.1419637177152541e-06  -1.7841563637555914e-07  4.7040770132069948e-09  -9.7723375722122830e-08  1.7455358621133996e-08  1.6231092686944903e-08  7.9861981648978064e-08  2.6703352659076557e-07  -2.6290503750418970e-05  -7.9041183328252187e-06  -2.8052865711573126e-05  3.3544241752797170e-04  -3.2459470494747243e-06  7.5853629117773754e-08  -1.3344930590939285e-07  -1.2836210403885444e-07  3.4546789359977317e-08  -8.5558839922442216e-08  5.3906705335236519e-08  1.3643088597132356e-07  5.5236274926895379e-07  -1.7161430580293403e-08  -1.0728720939434054e-06  1.7632197446876867e-06  6.3194296552489016e-07  -7.7879745975376219e-07  -6.0956020409672306e-06  3.9334389944208171e-06  -2.6040597519646217e-04  -8.9754855579426580e-07  1.5373826143763615e-05  -2.3819795655965982e-04  -1.0110188455740229e-07  4.6021212725612072e-08  -4.4893057638345965e-08  -1.8375516370429927e-07  3.2618661881238530e-08  3.8831527968150471e-08  1.7246091973928290e-08  -2.2672955461599536e-07  5.5524799212128339e-08  -1.4663029015803189e-07  2.5542478998408235e-07  -5.5535242246612595e-08  -2.2436508380037808e-07  -8.3260732420537565e-08  2.4151504209581369e-07  -1.9275230671647982e-08  1.9672423595001419e-08  1.3635781366716724e-07  2.5375526800895135e-08  -2.8786716135815757e-06  -5.2844276684968142e-07  2.8022993644367851e-08  1.4984584873167313e-07  -1.4492236058894250e-07  3.4663556458140053e-08  -4.0435934065148862e-08  -8.7262504359800372e-08  -9.9899068597212830e-08  -1.4122005866002501e-05  7.5869253298295074e-09  -3.4163053011133003e-07  -5.2356964231766451e-08  9.6756073031548903e-08  -6.5180068835389525e-09  1.2483059555282077e-07  -2.4489792758913807e-07  8.4639631340205294e-09  5.1969315233238585e-09  -9.2364209541507005e-06  -3.9003383509363999e-08  -8.7313059425975355e-08  -5.6645228628364194e-08  -2.2988096287865085e-07  6.2764939847240105e-07  7.3321889091515350e-07  1.6059745545455846e-07  2.8012346268557799e-07  7.0441992905840657e-09  2.1565822615081629e-07  2.6172349130336173e-07  2.2687576668491264e-07  -1.2507123506640658e-09  4.8796311489851302e-08  -3.9027465670319807e-08  2.4036114299189631e-07  -1.4918149437462692e-08  -2.6507663213636590e-07  -2.4495666772961629e-08  -1.4162838639214065e-07  1.3587797450569053e-07  1.3926332689166188e-07  2.1611095054123994e-07  -5.7046556902807988e-08  6.2753871494271047e-09  -9.2632388011242122e-08  -7.2177535165361061e-08  7.0667020798297451e-08  -2.4841705140573571e-07  -5.6249090195524386e-08  9.0222334663520542e-09  -4.9732149745569216e-08  3.6233012207856422e-07  1.6498811664986408e-07  2.5468441750612917e-07  5.8888294983550563e-08  1.6912523498041277e-07  -4.8924872742606960e-09  1.2436874613354967e-07  1.0548368107842345e-07  -2.2750487619798087e-08  2.9404095348668958e-05  -4.3359291801868814e-08  3.3804927151631865e-08  -3.2103862222925775e-06  -8.2437792383510745e-05  1.3493002694835338e-05  -8.6202115756025613e-05  -8.2864279111985434e-05  -9.2680875964115781e-06  -8.4027970654552916e-08  -4.8379180536336018e-08  -5.8362499382056763e-06  -8.5264584175275741e-05  1.7167477369199810e-07  -7.7294265088289396e-05  -8.2488353106034755e-05  1.5304255999422995e-07  -9.5633443046644304e-08  9.0408231636772757e-08  -1.3443619591976608e-08  1.7396944386258792e-08  -1.1614743395873356e-07  8.9323448985617552e-08  -5.3294349522189012e-08  -4.3373574037401000e-11  1.4272276679352246e-07  -2.9339996993940375e-08  8.1212986606331889e-08  7.7946356072648252e-08  1.4504968733979962e-07  2.7259984627960914e-07  -2.3822861017112775e-08  -8.1847558849003923e-10  5.3819873392129171e-09  -7.1971890173978935e-06  -4.3578220651215059e-06  -9.5570042289339981e-07  -3.1543125906381459e-06  -9.8263930103881790e-07  -1.1162180205388471e-06  -3.1135503271139798e-06  1.4257905805839317e-08  1.8370117923401907e-09  -4.4902465493135352e-06  -7.7731320305652358e-06  -8.9594872649302570e-08  -4.1985127595174866e-08  6.0367182042152726e-08  6.9631836205548584e-08  6.1036690568924932e-08  1.6146272377815368e-07  7.1001432193167783e-09  3.5149713809141665e-07  4.0786604106622330e-08  -4.7709154290560521e-08  -4.0716969846509693e-08  1.2647163236287816e-07  -3.6224763963730850e-06  -6.3097612090783748e-05  3.0107368002863844e-07  -8.6178269663401503e-07  2.4962878968448020e-05  -6.5797454163653895e-08  -2.1662025162467499e-07  1.8505122877811050e-07  1.4185781028159589e-07  -1.5136026618309797e-05  1.3898679686051793e-04  2.8057671629602144e-08  -1.5758792923082582e-08  1.8685915206845957e-08  2.6725475906677254e-08  2.0529929117757941e-07  -1.1283320586029288e-07  1.6668176579070203e-07  -2.6972859538577105e-07  -4.7656328496592781e-07  -2.8610469559616331e-08  7.0754797463169784e-08  5.8129251122819123e-08  -1.2976071109203402e-07  -1.2374523814131566e-07  -1.7702374850674218e-08  8.0170201227645554e-08  1.4601361060481391e-07  -4.0463852812212136e-07  -7.8790489402312003e-08  4.2837284070170419e-08  7.6432642326851676e-08  -6.6031902099033916e-09  -8.6037468058256182e-08  6.5345174183293358e-09  2.2871882251787810e-08  3.0415723199033632e-07  -1.6913253311072299e-07  -4.1311778957378172e-07  -6.7520042526432557e-08  2.4290155660921393e-09  2.0872781041865150e-08  4.6385200372407345e-08  -1.0903226212808824e-06  -1.0617132453142897e-06  -7.5145409411911956e-07  1.4722314945887238e-05  2.4085760895231190e-07  -7.6836025945505124e-06  -1.1074493229163981e-06  8.9444116964340482e-05  7.1053741686507348e-08  -7.3441943096547344e-07  -2.2938111693276558e-07  -6.4613899292487076e-07  1.0500902019975132e-07  -3.4030572219878365e-05  -3.6969710875529900e-05  -5.7924179310943754e-08  1.4864418080971909e-07  -8.3517174664810381e-08  -6.6918892515451826e-08  2.6449960184777361e-08  1.4211740692994046e-03  -5.1915010841492026e-06  1.4263563114144976e-07  -3.9609898943031005e-08  -2.0452816984737964e-08  -1.8324037297185476e-07  5.2646846552767083e-08  -2.7724780358982991e-07  5.7716044861917241e-08  1.2964354623357872e-07  5.5308438150377315e-08  -2.1731199959781148e-07  -9.1141541610126262e-08  -7.2907818021380705e-09  -5.0077132293988600e-08  -8.1865682541076405e-07  -9.8307575757709829e-06  8.4885529837781103e-09  3.9730458505717388e-08  5.7896417807199173e-08  1.1670582614538630e-07  1.9479130097484523e-07  -1.3877892635043852e-07  -1.5260264697454163e-07  -2.1717967626927488e-07  -2.7483066318029955e-08  2.6590189603861513e-07  -6.1502179140170881e-08  5.2474338585590510e-08  -4.5519918606727537e-08  1.5489246789177575e-07  -2.5098197183521067e-08  6.0442612951646019e-08  -1.4001397502224093e-07  -5.5237094986902546e-05  -4.6283777511949691e-05  -2.0783047057057279e-04  -5.8480361384130373e-05  -1.8030506500469619e-07  -7.0139784133691990e-08  5.2306239398394267e-05  -1.1594657483801897e-07  -6.4185739398277802e-10  -1.6255287935540620e-05  -2.9522999675852008e-07  -1.0633738389055990e-05  -1.8268138840389067e-07  -3.5412074752917061e-06  -1.2817270484512048e-07  -1.8498887506653744e-07  1.4217936569998251e-07  1.2606693512636635e-07  -1.4497203267824818e-07  3.0450999793275964e-08  1.0873863666814003e-07  -4.5557898214029262e-08  7.6066181939525037e-08  1.2290566698540354e-03  3.2225583809738851e-08  2.3479118874996043e-07  4.3123721215990506e-08  1.0804969216997153e-07  8.8874990187092740e-08  -7.9281831360994382e-08  -2.5400166223172544e-08  8.2402365975663397e-08  3.1295135327840413e-08  -1.3829653911573748e-07  1.7314535534542146e-07  -8.7815826063247144e-08  -8.4823758165974618e-09  4.0674059134645422e-08  2.4777336268426331e-07  1.2933291242143265e-07  1.2928709172638975e-07  7.7917596498767225e-08  -1.0621286396797359e-07  -1.3183322832051988e-07  1.7739767362512682e-08  -2.1332095651148323e-07  -1.4686889598518146e-07  -9.6519100864541315e-08  4.6614985430764550e-08  1.0098475411107710e-08  1.1386601087920995e-07  -9.2392299447535885e-07  4.9462636713817621e-08  4.8238700049703395e-05  -3.0629759670350681e-07  -1.6049610147565835e-05  1.2730791264044621e-07  -2.3346419498431681e-07  -8.3873354304851640e-05  -3.2800277515429167e-06  -3.9012184116412437e-06  -6.0164658345131930e-06  -1.1974266984226536e-06  -4.1496978231838939e-06  -1.4052907248939303e-05  9.8714334833734107e-05  -1.1314440551702253e-07  -3.5738023412576033e-08  1.8711766296378740e-07  -2.4950610827341539e-07  -1.0359157618303075e-07  2.8412192073404670e-07  -2.5447623347841472e-07  1.2204308247161631e-07  1.6871685218059045e-07  -8.4187596864625414e-08  -5.7980518630358710e-09  1.9214735824247912e-07  -1.2766330358872340e-07  -1.9023200096036014e-06  -2.1773117312943489e-07  -1.4777093920744932e-07  -1.5371389128048390e-08  -5.1720895535504568e-06  -9.6212230842491587e-07  1.2813692856207116e-08  8.8105351981602961e-08  -7.9824673098316458e-08  2.7630008317993922e-07  5.8930750282237261e-09  -6.9704930004705836e-08  1.9400783273106458e-07  1.2247352377596153e-08  3.2924004275760019e-08  -7.1146651796464774e-06  -1.8708766962882890e-07  2.3167269039555255e-08  4.8989303311993115e-08  2.5827268505329054e-07  1.4148155551920147e-07  2.4663841156664042e-07  9.2162832056730762e-08  4.2078616704950303e-08  -2.9992825257734030e-08  -3.1066041872597154e-08  1.9493760997751806e-07  -2.7925279052937223e-04  8.2897439456342469e-04  -2.2179794313938011e-06  -1.2471017519991899e-06  -2.9800894268415863e-08  8.0790297375333444e-08  -4.4430787602683097e-08  -1.8447671416157666e-07  -9.6298931520091666e-07  -2.1523234719624998e-07  -4.2466568082230658e-07  -3.4824016142399145e-07  -1.2907974726891027e-06  -7.6234881725638256e-06  2.9843801737019704e-08  9.1860459975661108e-05  1.1274668350468825e-07  1.3353372511457546e-07  -2.3010666467575446e-06  -7.7944273066115195e-05  -1.9461082721122588e-04  -1.1826158648236464e-06  -2.0677911066199477e-06  -1.5276918210000540e-05  -4.7902721852953357e-05  -3.0570982214020898e-04  -8.2970583374214873e-08  1.0818353346781561e-07  3.6301952408415895e-08  1.5364660894130251e-07  9.0584403164309466e-04  -1.2211590715139683e-06  4.6043291011045509e-08  1.2700866112515236e-07  4.7763278990393795e-08  -8.0843451054976752e-08  5.4115462154899734e-08  1.2977657996939900e-07  8.1707928827776639e-09  -1.4617006743033040e-07  -1.3313186569997923e-07  7.5247943700641333e-08  9.3588263747300209e-08  -4.5095625358540826e-07  1.5012726386011694e-07  4.3967878872491609e-08  -1.2007400293288231e-07  -4.6052669316373542e-08  -4.9848265365260319e-08  -1.4030446739840672e-07  -3.7398145083735084e-06  -1.0654293966799579e-06  -8.9898989372773062e-08  -8.8579931562048888e-08  -7.1431537084450338e-08  -7.6712488428518497e-08  -2.9999138369617756e-07  1.1660073155928805e-07  -1.9967786055264219e-07  1.1789995946772331e-07  -4.8857558372480341e-08  -1.5148270853817555e-07  2.0324978660325397e-08  -7.0429631611157420e-08  -7.6159377494003053e-08  -9.3106426767349392e-08  1.4328331401633966e-07  1.9364993829404394e-07  1.0851980319337101e-07  7.0667741128523639e-08  1.1534423206485755e-07  -9.8636434117123702e-08  3.4204082717435426e-07  -2.7862983408921293e-08  -2.2476747521474307e-06  -3.1797272359710535e-07  -4.0868762334154713e-07  -6.5710555381427022e-08  -2.0923297706852016e-09  -1.4722431476434210e-06  5.5799224761628323e-08  -5.6188215037104888e-06  -1.9401152148716924e-06  -4.0951052547089884e-06  9.3997217797347704e-05  -1.0103404005741519e-07  -7.7624095720890294e-08  -6.6136370503180805e-08  2.6114336738874529e-08  1.1399303147601001e-08  -1.1270068759535024e-07  1.5491883986111747e-07  1.9138929375350722e-07  1.4845392318654655e-05  -2.2815815891734075e-05  -5.8171021025325719e-06  2.6818749585090402e-06  2.2704938661535605e-07  7.7165773801321156e-07  -2.2753037069210296e-07  1.3582804046485884e-06  5.5732682133321058e-06  -1.3624925141247847e-05  -1.1656221196674850e-03  -3.5340803352107127e-06  2.3681314035929185e-08  1.0241908024988324e-07  1.4757194323105482e-05  2.1030225582174366e-05  8.1984583050250786e-05  5.0133677846629624e-08  9.8848384150669485e-05  -2.1764627958781749e-07  -4.2716416616728948e-08  -1.2858076612788821e-03  3.7353311343751467e-08  -9.2395161402837156e-09  -1.6485906962516693e-07  -1.7521909551955998e-07  -2.3281377199715162e-08  -4.8221193708771399e-08  1.4394802631162191e-07  2.6065529702429872e-07  -5.4813673714115103e-08  3.8226223619934410e-08  -2.9031222563007631e-08  -2.1284662728355079e-06  -6.2190914379142571e-07  1.6546208626495585e-07  -5.0457675779173569e-09  -6.3664160379028369e-05  -2.5453657013481721e-05  9.5415711155792172e-08  -6.7132741720683355e-08  1.2904764503236242e-07  -9.9000224183102111e-08  2.1815780204380707e-07  -1.6788770142764428e-07  7.6483770124081471e-08  -2.2977736261656210e-05  -1.1015719221733429e-07  4.8386511568920837e-08  -2.2220026058130582e-08  1.0709135905752268e-04  -4.5120551895413035e-06  -3.1422305178617745e-08  4.6513053311365197e-08  -4.4170257482528065e-08  2.2327267596979670e-09  1.2911602956583408e-07  7.3535223025291113e-09  -6.1102707823616216e-08  -1.1462614833864765e-07  8.7582574987008981e-08  -4.7128811389498003e-08  -4.9617837400325795e-05  -2.9241929436543765e-07  -2.2606569495223405e-06  -2.6964829001155643e-08  -1.8598175164038354e-07  -1.7474802133683123e-06  1.5369142180675591e-07  1.6597156177769448e-07  4.5008396590836142e-07  2.2504773235863841e-07  1.2294918081817032e-04  -1.3870810522689151e-06  -1.3522026116781497e-07  -1.1507396569137869e-06  -4.8656834065331217e-06  -2.7396253064988842e-08  -4.4208673559528247e-08  -6.9542781821974009e-08  -3.4748552626100641e-08  -7.9578582034337994e-08  -7.2653893281693835e-09  6.6602517341545945e-08  -1.4627191144775178e-07  -2.0872531934844091e-06  -2.4953399834315857e-06  -3.2745059949676336e-08  -1.1958718198592956e-07  5.6810623523722583e-08  -7.0068046024284935e-08  -1.8428218662535191e-04  -6.0921113711652277e-06  3.9614228181936609e-08  -8.7655105468415424e-07  -3.5428185159554296e-06  2.4097230445101695e-07  -8.0810952533855915e-08  -8.2601908726284570e-06  -1.4186673940818213e-04  -1.6676752848511774e-04  -1.3100959673044622e-04  1.3126910192538998e-07  -1.4944874097106030e-08  1.8368503136716139e-07  2.1624632218683140e-08  -8.2694465894920976e-09  2.0884549595349809e-08  -1.6938220919056734e-07  3.5490702216825930e-08  4.3959422243260225e-08  2.5424651385075831e-08  -1.6871632703601373e-07  4.6554780025656613e-08  3.0417948296422492e-07  1.2385848984958820e-07  7.2159503181988896e-08  -4.6219372135041243e-06  -3.2387644534954926e-06  4.2203317441243870e-08  4.1545302826320936e-08  -1.1166458683229563e-07  1.0931968540052302e-07  1.3697222507073759e-07  4.9664681371833821e-08  -2.8092665501521261e-07  -2.4720708168974046e-07  6.1320226873849807e-08  1.2427132974240327e-07  -1.2866330439959132e-07  -1.3267261963747526e-07  9.6130821506738428e-08  -1.2109013738092403e-09  -4.9869137804591732e-06  -1.5877677147585275e-05  3.2767206463549367e-04  -5.7428800544722308e-07  -1.9371553308865736e-07  -1.4166986037149416e-07  -8.9658402506885662e-08  -6.0621693162589086e-06  -3.0557729916068714e-07  1.4428824580192285e-07  -5.6070605480909432e-05  -1.6839032624928839e-06  -4.5273862417023471e-08  -1.9313655392165153e-09  1.4401109297957832e-07  -2.2976221304530337e-07  1.7838403758197402e-07  1.8127381241253503e-07  1.4842531697007752e-07  1.2934006683662219e-07  8.0175663408531334e-08  2.4054284798890162e-08  1.6821902663447630e-07  -1.5517580850042019e-07  1.0469581270321050e-07  -2.5735762521718453e-07  1.2340189826602910e-07  2.8549501843066209e-07  -3.1760348240901384e-08  9.7608794142573067e-08  1.1168601744681669e-07  4.2552315539347012e-07  -6.2225211127988889e-08  -3.8623970737756900e-07  -2.8910170581706509e-07  1.5804079279524582e-07  5.9687656239722945e-08  -5.9198763759453360e-09  -1.6448466943192239e-08  1.0175992477160707e-07  -1.24662409419499