<?xml version="1.0"?>
<VTKFile type="UnstructuredGrid"  version="0.1"  >
<UnstructuredGrid>
<Piece  NumberOfPoints="16808" NumberOfCells="31534">
<Points>
<DataArray  type="Float64"  NumberOfComponents="3"  format="ascii">0 12.7 0  0 0 0  0.2 0 0  0.2 12.7 0  0.2 6.35 0  0 6.35 0  0 3.175 0  0.2 3.175 0  0 9.524999999999999 0  0.2 9.524999999999999 0  0 11.1125 0  0.2 11.1125 0  0.2 1.5875 0  0 1.5875 0  0.2 4.762499999999999 0  0 4.762499999999999 0  0.2 7.937499999999999 0  0 7.937499999999999 0  0.2 10.31875 0  0 10.31875 0  0.2 11.90625 0  0 11.90625 0  0 5.556249999999999 0  0.2 5.556249999999999 0  0 0.79375 0  0.2 0.79375 0  0 2.38125 0  0.2 2.38125 0  0.2 7.143749999999999 0  0 7.143749999999999 0  0 8.731249999999999 0  0.2 8.731249999999999 0  0 3.96875 0  0.2 3.96875 0  0.2 11.509375 0  0 11.509375 0  0 10.715625 0  0.2 10.715625 0  0 7.540624999999999 0  0.2 7.540624999999999 0  0.2 2.778125 0  0 2.778125 0  0.2 5.159374999999999 0  0 5.159374999999999 0  0.2 5.953125 0  0 5.953125 0  0.2 8.334375 0  0 8.334375 0  0.2 0.396875 0  0 0.396875 0  0 1.190625 0  0.2 1.190625 0  0.2 3.571874999999999 0  0 3.571874999999999 0  0.2 4.365625 0  0 4.365625 0  0.2 1.984375 0  0 1.984375 0  0.2 6.746874999999999 0  0 6.746874999999999 0  0.2 9.128124999999999 0  0 9.128124999999999 0  0.2 9.921874999999998 0  0 9.921874999999998 0  0 12.303125 0  0.2 12.303125 0  0 11.7078125 0  0.2 11.7078125 0  0.2 10.5171875 0  0 10.5171875 0  0.2 8.135937499999999 0  0 8.135937499999999 0  0.2 5.754687499999999 0  0 5.754687499999999 0  0 5.3578125 0  0.2 5.3578125 0  0 7.739062499999999 0  0.2 7.739062499999999 0  0 3.770312499999999 0  0.2 3.770312499999999 0  0.2 1.3890625 0  0 1.3890625 0  0.2 2.579687499999999 0  0 2.579687499999999 0  0 2.9765625 0  0.2 2.9765625 0  0 4.1671875 0  0.2 4.1671875 0  0 0.1984375 0  0.2 0.1984375 0  0 0.5953124999999999 0  0.2 0.5953124999999999 0  0.2 1.7859375 0  0 1.7859375 0  0 2.1828125 0  0.2 2.1828125 0  0.2 0.9921874999999999 0  0 0.9921874999999999 0  0.2 12.1046875 0  0 12.1046875 0  0.2 12.5015625 0  0 12.5015625 0  0 9.723437499999999 0  0.2 9.723437499999999 0  0 8.9296875 0  0.2 8.9296875 0  0 9.326562499999998 0  0.2 9.326562499999998 0  0 6.548437499999999 0  0.2 6.548437499999999 0  0 6.945312499999999 0  0.2 6.945312499999999 0  0 3.3734375 0  0.2 3.3734375 0  0 8.532812499999999 0  0.2 8.532812499999999 0  0 6.1515625 0  0.2 6.1515625 0  0 4.564062499999999 0  0.2 4.564062499999999 0  0 4.960937499999999 0  0.2 4.960937499999999 0  0.2 7.342187499999999 0  0 7.342187499999999 0  0 10.1203125 0  0.2 10.1203125 0  0.2 10.9140625 0  0 10.9140625 0  0 11.3109375 0  0.2 11.3109375 0  0.1 10.81484375 0  0.1 12.00546875 0  0.1 5.85390625 0  0.1 8.235156249999999 0  0.1 8.632031249999999 0  0.1 8.83046875 0  0.1 9.425781249999998 0  0.1 9.624218749999999 0  0.1 10.21953125 0  0.1 10.41796875 0  0.1 10.61640625 0  0.1 11.60859375 0  0.1 11.80703125 0  0.1 11.41015625 0  0.1 5.258593749999999 0  0.1 7.639843749999999 0  0.1 12.7 0  0.1 4.067968749999999 0  0.1 2.87734375 0  0.09999999999999999 2.67890625 0  0.1 3.86953125 0  0.1 1.88515625 0  0.1 0.6945312499999999 0  0.1 1.28984375 0  0.1 1.48828125 0  0.1 2.08359375 0  0.1 0 0  0.1 0.29765625 0  0.1 0.8929687499999999 0  0.09999999999999999 1.09140625 0  0.1 0.4960937499999999 0  0.1 7.242968749999999 0  0.1 4.861718749999999 0  0.1 5.060156249999999 0  0.1 4.464843749999999 0  0.1 4.663281249999999 0  0.09999999999999999 3.47265625 0  0.1 6.846093749999999 0  0.1 7.044531249999999 0  0.1 6.449218749999999 0  0.1 6.647656249999999 0  0.09999999999999999 6.250781249999999 0  0.1 6.05234375 0  0.09999999999999996 1.68671875 0  0.1 4.266406249999999 0  0.1 3.07578125 0  0.09999999999999999 2.28203125 0  0.09999999999999996 2.48046875 0  0.1 3.671093749999999 0  0.1 3.27421875 0  0.09999999999999999 5.457031249999999 0  0.09999999999999996 5.65546875 0  0.09999999999999999 7.441406249999999 0  0.09999999999999999 7.838281249999999 0  0.09999999999999996 8.036718749999999 0  0.1 11.21171875 0  0.1 11.01328125 0  0.1 10.02109375 0  0.1 8.43359375 0  0.1 9.227343749999999 0  0.1 9.02890625 0  0.1 9.82265625 0  0.1 12.40234375 0  0.1 12.20390625 0  0.1 12.5755843996063 0  0 0.09921874999999999 0  0.2 0.09921874999999999 0  0.09999999999999999 0.148828125 0  0.09922180175781284 7.143749999999999 0  0 7.639843749999999 0  0.2 7.639843749999999 0  0 5.258593749999999 0  0.1007781982421872 5.159374999999999 0  0.2 5.258593749999999 0  0.09922180175781285 11.90625 0  0.09922180175781285 11.509375 0  0.1007781982421872 11.7078125 0  0 11.41015625 0  0 11.60859375 0  0.2 11.41015625 0  0.2 11.60859375 0  0.09922180175781285 10.715625 0  0.1007781982421872 10.5171875 0  0.1007781982421872 10.31875 0  0 10.41796875 0  0.2 10.41796875 0  0 10.21953125 0  0.2 10.21953125 0  0.1007781982421872 9.524999999999999 0  0 9.624218749999999 0  0.2 9.624218749999999 0  0 9.425781249999998 0  0.2 9.425781249999998 0  0.1007781982421872 5.953125 0  0.09922180175781285 8.135937499999999 0  0.1007781982421872 8.731249999999999 0  0 8.83046875 0  0.2 8.83046875 0  0 8.632031249999999 0  0.2 8.632031249999999 0  0.2 8.235156249999999 0  0 8.235156249999999 0  0.2 5.85390625 0  0 5.85390625 0  0 11.80703125 0  0 12.00546875 0  0.2 11.80703125 0  0.2 12.00546875 0  0 10.61640625 0  0 10.81484375 0  0.2 10.61640625 0  0.2 10.81484375 0  0.09922180175781287 5.556249999999999 0  0.1007781982421872 11.1125 0  0.09922180175781285 8.334375 0  0.09922180175781285 8.9296875 0  0.09922180175781285 9.723437499999999 0  0.2 12.60078125 0  0 12.60078125 0  0.1007781982421874 1.984375 0  0.1007781982421874 1.3890625 0  0 2.67890625 0  0 2.87734375 0  0.1007781982421874 2.5796875 0  0.2 2.67890625 0  0.2 2.87734375 0  0 3.86953125 0  0 4.067968749999999 0  0.1007781982421874 3.7703125 0  0.2 3.86953125 0  0.2 4.067968749999999 0  0.09922180175781263 2.9765625 0  0 2.08359375 0  0.2 2.08359375 0  0.2 1.48828125 0  0 1.48828125 0  0 1.28984375 0  0.2 1.28984375 0  0 0.6945312499999999 0  0.2 0.6945312499999999 0  0.2 1.88515625 0  0 1.88515625 0  0.09922180175781251 0.9921874999999999 0  0.1007781982421875 0.5953124999999999 0  0 0.29765625 0  0.2 0.29765625 0  0.1007781982421875 0.396875 0  0 0.4960937499999999 0  0.2 0.4960937499999999 0  0.2 1.09140625 0  0 1.09140625 0  0.1007781982421876 0.7937499999999998 0  0 0.8929687499999999 0  0.2 0.8929687499999999 0  0.1007781982421876 7.937499999999998 0  0 8.036718749999999 0  0.2 8.036718749999999 0  0 7.83828125 0  0.2 7.83828125 0  0.1007781982421876 7.739062499999999 0  0.09922180175781239 7.540624999999999 0  0.2 7.441406249999998 0  0.09922180175781239 7.3421875 0  0 7.441406249999998 0  0 5.655468749999999 0  0.09922180175781239 5.754687499999999 0  0.2 5.655468749999999 0  0 5.45703125 0  0.2 5.45703125 0  0.1007781982421876 5.3578125 0  0.1007781982421876 3.175 0  0.09922180175781241 3.571874999999999 0  0 3.671093749999999 0  0.2 3.671093749999999 0  0.1007781982421876 2.38125 0  0 2.48046875 0  0.2 2.48046875 0  0 2.28203125 0  0.2 2.28203125 0  0.1007781982421876 2.1828125 0  0 3.07578125 0  0.09922180175781242 1.5875 0  0 1.68671875 0  0.09922180175781239 1.7859375 0  0.2 1.68671875 0  0 6.05234375 0  0 6.250781249999999 0  0 6.44921875 0  0.2 6.05234375 0  0.2 6.250781249999999 0  0.1007781982421876 6.349999999999999 0  0.2 6.44921875 0  0.1007781982421876 6.548437499999999 0  0.09922180175781242 6.746874999999999 0  0.1007781982421876 6.945312499999998 0  0 6.647656249999999 0  0 6.84609375 0  0.2 6.647656249999999 0  0.2 6.84609375 0  0 3.27421875 0  0 3.47265625 0  0.2 3.07578125 0  0.2 3.27421875 0  0.1007781982421876 3.3734375 0  0.2 3.47265625 0  0.09922180175781244 4.167187499999999 0  0 4.266406249999999 0  0 4.46484375 0  0.2 4.266406249999999 0  0.1007781982421876 4.365625 0  0.2 4.46484375 0  0 5.060156249999999 0  0.2 5.060156249999999 0  0.1007781982421876 4.564062499999999 0  0.09922180175781242 4.762499999999999 0  0.1007781982421876 4.960937499999998 0  0 4.663281249999999 0  0 4.86171875 0  0.2 4.663281249999999 0  0.2 4.86171875 0  0.2 7.044531249999999 0  0.2 7.242968749999999 0  0 7.044531249999999 0  0 7.242968749999999 0  0.09922180175781239 1.190625 0  0.09922180175781241 3.96875 0  0.09922180175781241 2.778125 0  0.09922180175781195 12.303125 0  0.100778198242188 12.1046875 0  0 12.20390625 0  0 12.40234375 0  0.2 12.20390625 0  0.2 12.40234375 0  0 9.028906249999999 0  0 9.227343749999999 0  0.09922180175781198 9.128125000000001 0  0.09922180175781198 9.3265625 0  0.2 9.028906249999999 0  0.2 9.227343749999999 0  0 8.43359375 0  0.09922180175781198 8.5328125 0  0.2 8.43359375 0  0 9.822656249999998 0  0 10.02109375 0  0.09922180175781198 9.921875 0  0.09922180175781198 10.1203125 0  0.2 9.822656249999998 0  0.2 10.02109375 0  0.09922180175781196 10.9140625 0  0 11.01328125 0  0 11.21171875 0  0.09922180175781198 11.3109375 0  0.2 11.01328125 0  0.2 11.21171875 0  0.09922180175781198 6.1515625 0  0.08672180175781248 12.48896407480315 0  0.07461090087890626 0.2232421875 0  0.1253890991210938 0.0744140625 0  0.05038909912109379 4.3164077878937 0  0.1496109008789064 5.605467212106299 0  0.1496109008789064 8.0867202878937 0  0.05038909912109358 5.1101577878937 0  0.05038909912109338 4.514845287893699 0  0.05038909912109338 6.896095287893699 0  0.05038909912109338 6.499220287893699 0  0.05000000000000002 6.002734375 0  0.05000000000000002 3.819921874999999 0  0.1496109008789064 5.5070327878937 0  0.1499999999999996 7.391796874999998 0  0.05038909912109338 4.911720287893699 0  0.1496109008789069 9.971092212106297 0  0.1496109008789069 9.177342212106298 0  0.05038909912109314 12.0554702878937 0  0.149610900878906 12.2539077878937 0  0.05 12.7 0  0.1374999999999996 12.63779219980315 0  0.1496109008789064 9.772654712106299 0  0.1496109008789064 9.6742202878937 0  0.1496109008789064 8.978904712106299 0  0.1496109008789064 8.880470287893701 0  0.1496109008789064 8.383592212106299 0  0.1496109008789064 
[...]
<PointData  Scalars="sigma (Pa)"> 
<DataArray  type="Float64"  Name="sigma (Pa)"  format="ascii">4.7627988482626074e-02  4.6238909192882441e-02  -4.2032318510540422e-02  -4.5941515770783453e-02  -1.9556673573010516e-05  1.6555335410818956e-08  6.4817814183063558e-08  -5.9012265224725260e-07  5.2780145198807402e-07  3.0102922951252608e-07  -8.7023901215659215e-07  -3.4412569108042541e-06  3.4669340097103602e-07  -4.1258104071258284e-07  1.0083873212153242e-07  9.0003751018785192e-08  -5.1770607800213600e-06  -2.2587035312397979e-06  -6.2293324977703448e-08  -5.6512883497960046e-09  1.0269955502463809e-06  8.6907625812525799e-07  3.1789220999742509e-07  -2.4536609322085146e-04  -2.7774382123820942e-07  3.3921209691132286e-07  6.8379682193004178e-08  -5.3239906032973643e-07  -1.2642522815421402e-04  2.4000483945990682e-07  -1.0932572597974428e-06  -3.0847269765896119e-08  -1.7606675576959336e-06  -2.8546551816839928e-07  5.3629570412828932e-07  1.9757906496083268e-06  7.6324095279812003e-08  -1.4154285971410807e-08  1.1050752092091324e-05  -9.2100590049246003e-04  -2.4560713885616871e-07  -1.2838926769741777e-06  8.1603827966495704e-04  -1.9030823460800584e-05  -5.7888596270787071e-05  5.8239997734734252e-08  3.4115027085184572e-07  -3.2058874589290628e-07  8.5909292203882702e-08  -1.6734333817047041e-07  -2.2768416135865272e-07  -2.9800967053035086e-07  -5.5735089595553869e-08  6.3727450259180251e-07  -1.8439418322903314e-07  -8.0726209077494947e-08  -6.2572166092624652e-07  -7.6705535484334981e-08  3.4201881054561014e-05  5.9725626247216600e-10  1.9177561735002961e-08  3.1025133323303775e-07  4.5483946962140822e-08  5.9458477515187876e-07  4.3993597051912294e-07  2.0638066112592675e-06  4.9374504927876465e-07  -5.0294622905914245e-07  3.6096930010823428e-07  -1.2667532232864402e-06  -1.0118760344918344e-06  -3.1330334293524304e-06  -1.1874844355432636e-04  4.4964815710029727e-07  1.8620656599907901e-06  -8.6643624797468359e-04  -4.5817823157964526e-06  2.9605367802491156e-04  -3.0232727555294919e-07  6.4135891469009558e-07  -1.5662297783239260e-07  1.4217299984693700e-06  1.1289457037259267e-06  3.3100922903619727e-07  9.3901704258077096e-08  -1.0335574625598606e-07  -2.2171895378523114e-07  9.4403828588231764e-07  7.1435646614673400e-07  1.5195085187340627e-06  -2.6935421564771392e-07  2.3114710252747322e-07  -4.8500998088185543e-07  -1.1156280129807321e-07  9.5736196829343702e-07  -4.7944893147027042e-07  1.7723392525994462e-08  5.3229858323538380e-07  -3.6761638227267608e-08  2.1986769261532421e-07  -2.8645066766141797e-07  5.7716308341275998e-07  -8.4788205797425027e-08  5.1312389956654210e-07  5.5505346197981674e-07  3.7489379854155888e-07  2.6429739299937724e-07  -7.8543013647749881e-07  -5.6187976408040353e-08  -2.0031367540271653e-05  -1.7303751342096915e-07  -6.1892631088393169e-05  4.3853705120474618e-07  1.3962223292739289e-07  2.3280977728149164e-07  -5.0331847490585516e-07  1.1661745249160437e-07  2.3635995319977465e-05  -3.0224784365337714e-07  -1.5806945749016441e-06  -1.8703333247935152e-06  -5.7560663399224534e-06  -2.6061666072193135e-04  -4.6373375290709832e-07  2.9005701598170511e-07  -8.2554374094887514e-07  3.2445561241136635e-08  1.8442325997384808e-08  -1.6682093028514278e-06  4.2939472412141634e-07  -6.2286189115036691e-07  1.8355681575196340e-07  -2.2095692159793518e-05  -8.7123944355163810e-07  2.7820197344240589e-07  4.3914474532226544e-07  -9.8837069117562298e-07  2.5039226469604472e-08  -4.9898269582872117e-07  9.4447200139644963e-07  2.3969559568354724e-08  -5.6724176747911237e-07  2.1373299082376261e-07  -1.0706293637509569e-07  -1.0386844435146185e-03  -1.1334640992392497e-03  1.0361455700874220e-04  -1.0763780392672982e-06  2.8874407470963270e-07  -7.1021780947553860e-07  -7.6333125734710717e-08  1.2129365620434204e-07  -9.8782996021963367e-07  7.7506226026122665e-07  -5.3679873776587085e-07  -1.8395539800805398e-07  2.8006559921881662e-04  1.2588658789780777e-06  -6.0017978037456656e-07  1.0314719880428027e-06  -2.5312268652241571e-07  -5.3157602460626748e-05  -2.0389638982860575e-05  1.8098939734375375e-03  1.1646491707671367e-06  4.9049860614895332e-07  -1.2855882619721716e-06  -1.3311358401248983e-05  -2.4063677764156501e-05  -5.0001948406702596e-06  -8.3808875520009489e-06  -7.7833529316117784e-06  -1.2401546363715762e-05  -1.0329914528936363e-06  2.7235249925607620e-08  -5.6579921207071809e-07  1.0106317813137232e-07  9.3974864225830461e-08  4.6238494736097637e-07  1.5460712130742242e-06  -1.5221681740326229e-04  -4.5763280658899958e-05  -1.6242054447596429e-04  1.9421452546606816e-03  -1.8793391442709272e-05  4.3917747525952919e-07  -7.7264508136875312e-07  -7.4319107271333181e-07  2.0001871897477298e-07  -4.9536832966311927e-07  3.1210944056234257e-07  7.8990757064561686e-07  3.1980710740927508e-06  -9.9361308455356791e-08  -6.2117172352448968e-06  1.0208693600303427e-05  3.6588247874243900e-06  -4.5090832648578174e-06  -3.5292330747602239e-05  2.2773833922385048e-05  -1.5076990939296359e-03  -5.1966275033503606e-06  8.9011412182721811e-05  -1.3791190592211692e-03  -5.8535986288843022e-07  2.6645364241486502e-07  -2.5992194903891946e-07  -1.0639060171640254e-06  1.8885564674697508e-07  2.2482697418442185e-07  9.9851576421318724e-08  -1.3127193132249514e-06  3.2147770326418092e-07  -8.4896017903532372e-07  1.4788590293521108e-06  -3.2153813795490754e-07  -1.2990297263213821e-06  -4.8206328677650816e-07  1.3983246064002331e-06  -1.1159988519453677e-07  1.1389893874820302e-07  7.8948479478998213e-07  1.4691988880867250e-07  -1.6666939264197448e-05  -3.0595787330056998e-06  1.6224755545799864e-07  8.6757676551993122e-07  -8.3907167749432600e-07  2.0069471217966892e-07  -2.3411611569902349e-07  -5.0523322493073576e-07  -5.7839564062926957e-07  -8.1763619405787128e-05  4.3926318898696400e-08  -1.9779731577329176e-06  -3.0313639257528147e-07  5.6019849480077361e-07  -3.7737962993221898e-08  7.2274418456927354e-07  -1.4179104383915678e-06  4.9005084668466366e-08  3.0089109099149644e-08  -5.3477050412323387e-05  -2.2582181559507390e-07  -5.0552562125513516e-07  -3.2796465918153678e-07  -1.3309648599646347e-06  3.6339658840711425e-06  4.2451923653885693e-06  9.2982734401347614e-07  1.6218594932801373e-06  4.0784666402481658e-08  1.2486184728646784e-06  1.5153270604752232e-06  1.3135661120859685e-06  -7.2414012280445477e-09  2.8252093802063847e-07  -2.2596134238919879e-07  1.3916433984054408e-06  -8.6373419720245734e-08  -1.5347410013320118e-06  -1.4182526713966314e-07  -8.2000047381821965e-07  7.8670656269917234e-07  8.0630732001838548e-07  1.2512395493093286e-06  -3.3028821476599430e-07  3.6333295147747140e-08  -5.3632323305731168e-07  -4.1789364164939858e-07  4.0914792785163385e-07  -1.4382859224780993e-06  -3.2567112497999444e-07  5.2236908920886217e-08  -2.8793931496547772e-07  2.0978197535281073e-06  9.5524856491085811e-07  1.4745724047603521e-06  3.4095158486878435e-07  9.7920167402376586e-07  -2.8326508766680862e-08  7.2007047408283044e-07  6.1072971656803241e-07  -1.3172087109032632e-07  1.7024389666013171e-04  -2.5104260616361366e-07  1.9572409727717093e-07  -1.8587500660389733e-05  -4.7729851402967372e-04  7.8121817906732556e-05  -4.9909320072235360e-04  -4.7976778828990512e-04  -5.3660394205121180e-05  -4.8650484659176572e-07  -2.8010585223030558e-07  -3.3790733444669663e-05  -4.9366507822222840e-04  9.9396330509148624e-07  -4.4751851046670091e-04  -4.7759125037121001e-04  8.8608651144666828e-07  -5.5369851710249788e-07  5.2344568258723772e-07  -7.7835819631146922e-08  1.0072478540293572e-07  -6.7247100782497080e-07  5.1716489891495042e-07  -3.0856351659225544e-07  -2.5082026840343293e-10  8.2633641615023759e-07  -1.6987263268703561e-07  4.7020715244089231e-07  4.5129397553422408e-07  8.3980921740167506e-07  1.5782992908758742e-06  -1.3792944823353958e-07  -4.7394674543013611e-09  3.1160873431722078e-08  -4.1670301759013094e-05  -2.5230928156204960e-05  -5.5333166543815457e-06  -1.8262846469038430e-05  -5.6892870144879143e-06  -6.4626811607077861e-06  -1.8026841100842088e-05  8.2550426386767597e-08  1.0635214521756645e-08  -2.5997639241505963e-05  -4.5004896088048705e-05  -5.1873633622100233e-07  -2.4308574147639388e-07  3.4951366295520896e-07  4.0315439266841054e-07  3.5339042979926001e-07  9.3483746937413424e-07  4.1108303863599767e-08  2.0350982148379505e-06  2.3614696630773481e-07  -2.7622654613181526e-07  -2.3574341881114430e-07  7.3224558436597269e-07  -2.0973421182792809e-05  -3.6532269465335503e-04  1.7431566591065744e-06  -4.9895511109994696e-06  1.4453013184448029e-04  -3.8095417451320184e-07  -1.2541874359308179e-06  1.0714084210538700e-06  8.2132779773675181e-07  -8.7634600415170037e-05  8.0470606411528012e-04  1.6244849556090270e-07  -9.1240237622148454e-08  1.0818783945850220e-07  1.5473472291181113e-07  1.1886421259107603e-06  -6.5328194821626520e-07  9.6505444747787705e-07  -1.5616752042406072e-06  -2.7592071763057259e-06  -1.6564893914190022e-07  4.0965627746318215e-07  3.3655629174490320e-07  -7.5128888098047517e-07  -7.1646006283442212e-07  -1.0249301995928107e-07  4.6417018074645739e-07  8.4539019305979840e-07  -2.3427771813369747e-06  -4.5618068888852020e-07  2.4801969724012868e-07  4.4252936480255244e-07  -3.8231121310941668e-08  -4.9813999814235064e-07  3.7833657253627108e-08  1.3242411487181966e-07  1.7610105251324551e-06  -9.7924393638213363e-07  -2.3918705684922785e-06  -3.9092788804026518e-07  1.4063445189259805e-08  1.2084926884660699e-07  2.6856117075448997e-07  -6.3127521136167638e-06  -6.1471097107675176e-06  -4.3507705852260844e-06  8.5239291821382910e-05  1.3945182775575661e-06  -4.4486539540199181e-05  -6.4119126486916732e-06  5.1786374699851515e-04  4.1138782532985081e-07  -4.2521438512311251e-06  -1.3280713290490889e-06  -3.7410168075082129e-06  6.0798170506538741e-07  -1.9703028205110180e-04  -2.1404731477325597e-04  -3.3537064458983110e-07  8.6061982540741786e-07  -4.8354703679835551e-07  -3.8744712103820789e-07  1.5314003557903056e-07  8.2283167876422494e-03  -3.0057764524763122e-05  8.2583235391981260e-07  -2.2933340456765752e-07  -1.1841782726666298e-07  -1.0609250705751065e-06  3.0481549769111623e-07  -1.6052096102388858e-06  3.3416449968165711e-07  7.5061030909101843e-07  3.2022474751961777e-07  -1.2581935814749868e-06  -5.2769185218302225e-07  -4.2212176656245781e-08  -2.8993664874450747e-07  -4.7398614100631426e-06  -5.6918141851919391e-05  4.9146732498377388e-08  2.3003190221986346e-07  3.3520850077286908e-07  6.7570340681458070e-07  1.1278031246917810e-06  -8.0350202505541708e-07  -8.8353941674597083e-07  -1.2574272968338204e-06  -1.5912147134334301e-07  1.5395197505372682e-06  -3.5608543883866620e-07  3.0381600197799840e-07  -2.6355127602320206e-07  8.9679673842738525e-07  -1.4531364317453651e-07  3.4995083305900732e-07  -8.1065324922870160e-07  -3.1981185539221288e-04  -2.6797391828483003e-04  -1.2032973212540014e-03  -3.3858972580846740e-04  -1.0439306650293495e-06  -4.0609552524253860e-07  3.0284278085083153e-04  -6.7130772081362404e-07  -3.7162542396841797e-09  -9.4114902821394901e-05  -1.7093222639641156e-06  -6.1567243339718928e-05  -1.0576888039782667e-06  -2.0502890900639239e-05  -7.4209455601270984e-07  -1.0710491894328258e-06  8.2319040687438887e-07  7.2990250046509198e-07  -8.3935942094340299e-07  1.7630527822158498e-07  6.2957520158041399e-07  -2.6377122900127531e-07  4.4040817640755208e-07  7.1159950409940250e-03  1.8657976653733692e-07  1.3593945653052628e-06  2.4967779624560429e-07  6.2558634786834505e-07  5.1456868075930681e-07  -4.5902622735568917e-07  -1.4706188588704973e-07  4.7709334169526639e-07  1.8119263274077869e-07  -8.0070966524872077e-07  1.0024773909503530e-06  -5.0843619196799282e-07  -4.9111245356190104e-08  2.3549472840773437e-07  1.4345586227819961e-06  7.4881281197368706e-07  7.4854653988039668e-07  4.5112768712251280e-07  -6.1495204654586768e-07  -7.6328836680378959e-07  1.0270957941091222e-07  -1.2350862327564589e-06  -8.5034149536824831e-07  -5.5882672045046789e-07  2.6989128886626732e-07  5.8468145966996478e-08  6.5926159879736009e-07  -5.3493313398675947e-06  2.8637884378702859e-07  2.7929253298002789e-04  -1.7734031638267312e-06  -9.2924068311354464e-05  7.3708787622362333e-07  -1.3517103422723490e-06  -4.8561013259142914e-04  -1.8990712430919539e-05  -2.2587282773303192e-05  -3.4834147443615245e-05  -6.9328637444264124e-06  -2.4025929865809224e-05  -8.1363554029426354e-05  5.7153647547157150e-04  -6.5508266740846904e-07  -2.0691605549403918e-07  1.0833742074438101e-06  -1.4445909316714042e-06  -5.9977462705633545e-07  1.6450099916800070e-06  -1.4733665045739571e-06  7.0660503132609982e-07  9.7683813134258952e-07  -4.8742954232325795e-07  -3.3569577091125667e-08  1.1124948108185169e-06  -7.3914529949839730e-07  -1.1014057133881364e-05  -1.2606203500888455e-06  -8.5556439182080829e-07  -8.8997590171473054e-08  -2.9945376079968625e-05  -5.5704990796993299e-06  7.4188737076016749e-08  5.1011280924805908e-07  -4.6216908497920564e-07  1.5997228229960696e-06  3.4119792387922743e-08  -4.0357773857836682e-07  1.1232670208226830e-06  7.0909789261538833e-08  1.9062349593056810e-07  -4.1192504564320278e-05  -1.0832000535791663e-06  1.3413464287569938e-07  2.8363810793817987e-07  1.4953476241381274e-06  8.1915037649362350e-07  1.4279875654638048e-06  5.3360445060877508e-07  2.4362706573837568e-07  -1.7365259011258489e-07  -1.7986620623970284e-07  1.1286501671883128e-06  -1.6168184277087188e-03  4.7995977937116225e-03  -1.2841661746050253e-05  -7.2204724624507562e-06  -1.7254142049605791e-07  4.6775999860034307e-07  -2.5724516289818329e-07  -1.0680836895896969e-06  -5.5755178789410190e-06  -1.2461518647717481e-06  -2.4587312405113848e-06  -2.0162409955774440e-06  -7.4734627587329871e-06  -4.4138489097927140e-05  1.7279011698973769e-07  5.3185389553108775e-04  6.5278021782748930e-07  7.7313350856561669e-07  -1.3322721239922870e-05  -4.5128192498529744e-04  -1.1267581999204873e-03  -6.8471123169604882e-06  -1.1972101911397962e-05  -8.8450335209705203e-05  -2.7734728593901151e-04  -1.7699994079463258e-03  -4.8038323726311348e-07  6.2636137666797327e-07  2.1018104907465535e-07  8.8958356606558790e-07  5.2446577892536050e-03  -7.0702694929859131e-06  2.6658151368633442e-07  7.3535547800364822e-07  2.7654001936808852e-07  -4.6806760335958054e-07  3.1331777497646713e-07  7.5138073502502836e-07  4.7307249083751307e-08  -8.4629580772272566e-07  -7.7080715242262910e-07  4.3567072537654809e-07  5.4185753103315144e-07  -2.6109474028736311e-06  8.6920727651074901e-07  2.5456550339473792e-07  -6.9520475934278485e-07  -2.6663585613190909e-07  -2.8861165892372630e-07  -8.1233491577349329e-07  -2.1652786718088965e-05  -6.1686255231269068e-06  -5.2049733795065357e-07  -5.1286022384994115e-07  -4.1357456431950406e-07  -4.4414942346511891e-07  -1.7368906056322063e-06  6.7509582478727191e-07  -1.1560952957267452e-06  6.8261757340213031e-07  -2.8287584370088473e-07  -8.7705478195075627e-07  1.1767767390934017e-07  -4.0777372583265866e-07  -4.4094744650339230e-07  -5.3906779187341072e-07  8.2958205543750129e-07  1.1211947740756869e-06  6.2830820043354574e-07  4.0915224592322089e-07  6.6782031259606034e-07  -5.7108552704629293e-07  1.9803487068131425e-06  -1.6132075025822661e-07  -1.3013592371583515e-05  -1.8409996137687771e-06  -2.3662212316641140e-06  -3.8045144057908655e-07  -1.2115021109776009e-08  -8.5239961353762132e-06  3.2306617972996956e-07  -3.2531864710817785e-05  -1.1232883999635786e-05  -2.3709849344741663e-05  5.4422530042727221e-04  -5.8496706691538223e-07  -4.4942808125231692e-07  -3.8291662554964511e-07  1.5119697458281922e-07  6.6000245325590807e-08  -6.5251490192623058e-07  8.9694953346978019e-07  1.1081061659766837e-06  8.5951885468061765e-05  -1.3209906160124331e-04  -3.3679870692694492e-05  1.5527525604024668e-05  1.3145710407655982e-06  4.4677456874317715e-06  -1.3173558471519748e-06  7.8641749085258220e-06  3.2268120699496117e-05  -7.8885621889791401e-05  -6.7487215412230126e-03  -2.0461626188335769e-05  1.3711012406976067e-07  5.9298621782323106e-07  8.5441236516855672e-05  1.2176084685523133e-04  4.7467452130807577e-04  2.9026399959670528e-07  5.7231259387839671e-04  -1.2601290595193983e-06  -2.4731932616213032e-07  -7.4445720573815925e-03  2.1626828740053705e-07  -5.3495270436285188e-08  -9.5450140747579879e-07  -1.0144839472898624e-06  -1.3479492199368801e-07  -2.7919150551256696e-07  8.3343067389064786e-07  1.5091421676432345e-06  -3.1736029902418613e-07  2.2132232733370895e-07  -1.6808495791334820e-07  -1.2323398502411185e-05  -3.6007309771430051e-06  9.5799268753744582e-07  -2.9213881931378732e-08  -3.6860289809208057e-04  -1.4737164004622146e-04  5.5243810196889424e-07  -3.8868529237378589e-07  7.4716085282587215e-07  -5.7319154242890752e-07  1.2630912908252297e-06  -9.7203691526262060e-07  4.4282585784200497e-07  -1.3303654866066327e-04  -6.3778877821176291e-07  2.8014822557677755e-07  -1.2864979624716747e-07  6.2003778916189657e-04  -2.6123906720209756e-05  -1.8193004205115678e-07  2.6930138705845058e-07  -2.5573706268422074e-07  1.2927627561507582e-08  7.4755625343488860e-07  4.2574975108278979e-08  -3.5377263585992145e-07  -6.6366261785877305e-07  5.0708577022648552e-07  -2.7286641454060617e-07  -2.8727746539489976e-04  -1.6930498902958488e-06  -1.3088757248037259e-05  -1.5612102587712994e-07  -1.0767973993969717e-06  -1.0117564468998773e-05  8.8984292956975609e-07  9.6094242808437649e-07  2.6058975138742135e-06  1.3029822179285978e-06  7.1185144056418767e-04  -8.0309249291506403e-06  -7.8289863203707534e-07  -6.6625542867598139e-06  -2.8171344723351913e-05  -1.5861888644058859e-07  -2.5595970101224921e-07  -4.0263957209055766e-07  -2.0118723009439960e-07  -4.6074427784646129e-07  -4.2065266658475147e-08  3.8561535197192203e-07  -8.4688523583485177e-07  -1.2084783033399831e-05  -1.4447525299802209e-05  -1.8958745979275909e-07  -6.9238609186771747e-07  3.2892228283897997e-07  -4.0568063075147882e-07  -1.0669574140600537e-03  -3.5272120265566288e-05  2.2935861972688890e-07  -5.0750568580353949e-06  -2.0512217932114235e-05  1.3951817830824636e-06  -4.6787925817556202e-07  -4.7824871636066487e-05  -8.2138036396346508e-04  -9.6555100730513950e-04  -7.5851965504643759e-04  7.6002213956062366e-07  -8.6527873270335497e-08  1.0635000393746398e-06  1.2520225427420329e-07  -4.7878480330920328e-08  1.2091775555077665e-07  -9.8068952444877976e-07  2.0548408490145243e-07  2.5451646173889840e-07  1.4720349815962403e-07  -9.7683400553523177e-07  2.6954329024125440e-07  1.7611390499413023e-06  7.1711587040108117e-07  4.1778875122662658e-07  -2.6760101327639887e-05  -1.8751805609142385e-05  2.4434884519527734e-07  2.4053933901167126e-07  -6.4651575259574627e-07  6.3293928968812630e-07  7.9304224183382070e-07  2.8754858152131304e-07  -1.6265100447279607e-06  -1.4312805119304160e-06  3.5503240671741675e-07  7.1950620933495052e-07  -7.4493493159193493e-07  -7.6814809906622516e-07  5.5657844325164506e-07  -7.0108866981352993e-09  -2.8873243601392719e-05  -9.1928610414745136e-05  1.8971564489887478e-03  -3.3250148816300231e-06  -1.1215742554304881e-06  -8.2023989958247205e-07  -5.1910439513955936e-07  -3.5098761804650383e-05  -1.7692320909260125e-06  8.3540072508139241e-07  -3.2463771610744300e-04  -9.7494672582646521e-06  -2.6212659450204824e-07  -1.1182206865204989e-08  8.3379576619154555e-07  -1.3302780342568612e-06  1.0328083056944237e-06  1.0495396228821476e-06  8.5935347911522739e-07  7.4885345159871969e-07  4.6420130805786868e-07  1.3926952800499700e-07  9.7395490468120042e-07  -8.9843724283972458e-07  6.0616804802608051e-07  -1.4900497321100589e-06  7.1447258189543396e-07  1.6529597195937284e-06  -1.8388612344588792e-07  5.6513560980725607e-07  6.4663995086950669e-07  2.4636949010946897e-06  -3.6027165340295157e-07  -2.2362519752033104e-06  -1.6738421107628288e-06  9.1502512052734100e-07  3.4557964233371285e-07  -3.4274952773747027e-08  -9.5233552862669143e-08  5.8917019397111617e-07  -7.21771053319921