<?xml version="1.0"?>
<VTKFile type="UnstructuredGrid"  version="0.1"  >
<UnstructuredGrid>
<Piece  NumberOfPoints="16808" NumberOfCells="31534">
<Points>
<DataArray  type="Float64"  NumberOfComponents="3"  format="ascii">0 12.7 0  0 0 0  0.2 0 0  0.2 12.7 0  0.2 6.35 0  0 6.35 0  0 3.175 0  0.2 3.175 0  0 9.524999999999999 0  0.2 9.524999999999999 0  0 11.1125 0  0.2 11.1125 0  0.2 1.5875 0  0 1.5875 0  0.2 4.762499999999999 0  0 4.762499999999999 0  0.2 7.937499999999999 0  0 7.937499999999999 0  0.2 10.31875 0  0 10.31875 0  0.2 11.90625 0  0 11.90625 0  0 5.556249999999999 0  0.2 5.556249999999999 0  0 0.79375 0  0.2 0.79375 0  0 2.38125 0  0.2 2.38125 0  0.2 7.143749999999999 0  0 7.143749999999999 0  0 8.731249999999999 0  0.2 8.731249999999999 0  0 3.96875 0  0.2 3.96875 0  0.2 11.509375 0  0 11.509375 0  0 10.715625 0  0.2 10.715625 0  0 7.540624999999999 0  0.2 7.540624999999999 0  0.2 2.778125 0  0 2.778125 0  0.2 5.159374999999999 0  0 5.159374999999999 0  0.2 5.953125 0  0 5.953125 0  0.2 8.334375 0  0 8.334375 0  0.2 0.396875 0  0 0.396875 0  0 1.190625 0  0.2 1.190625 0  0.2 3.571874999999999 0  0 3.571874999999999 0  0.2 4.365625 0  0 4.365625 0  0.2 1.984375 0  0 1.984375 0  0.2 6.746874999999999 0  0 6.746874999999999 0  0.2 9.128124999999999 0  0 9.128124999999999 0  0.2 9.921874999999998 0  0 9.921874999999998 0  0 12.303125 0  0.2 12.303125 0  0 11.7078125 0  0.2 11.7078125 0  0.2 10.5171875 0  0 10.5171875 0  0.2 8.135937499999999 0  0 8.135937499999999 0  0.2 5.754687499999999 0  0 5.754687499999999 0  0 5.3578125 0  0.2 5.3578125 0  0 7.739062499999999 0  0.2 7.739062499999999 0  0 3.770312499999999 0  0.2 3.770312499999999 0  0.2 1.3890625 0  0 1.3890625 0  0.2 2.579687499999999 0  0 2.579687499999999 0  0 2.9765625 0  0.2 2.9765625 0  0 4.1671875 0  0.2 4.1671875 0  0 0.1984375 0  0.2 0.1984375 0  0 0.5953124999999999 0  0.2 0.5953124999999999 0  0.2 1.7859375 0  0 1.7859375 0  0 2.1828125 0  0.2 2.1828125 0  0.2 0.9921874999999999 0  0 0.9921874999999999 0  0.2 12.1046875 0  0 12.1046875 0  0.2 12.5015625 0  0 12.5015625 0  0 9.723437499999999 0  0.2 9.723437499999999 0  0 8.9296875 0  0.2 8.9296875 0  0 9.326562499999998 0  0.2 9.326562499999998 0  0 6.548437499999999 0  0.2 6.548437499999999 0  0 6.945312499999999 0  0.2 6.945312499999999 0  0 3.3734375 0  0.2 3.3734375 0  0 8.532812499999999 0  0.2 8.532812499999999 0  0 6.1515625 0  0.2 6.1515625 0  0 4.564062499999999 0  0.2 4.564062499999999 0  0 4.960937499999999 0  0.2 4.960937499999999 0  0.2 7.342187499999999 0  0 7.342187499999999 0  0 10.1203125 0  0.2 10.1203125 0  0.2 10.9140625 0  0 10.9140625 0  0 11.3109375 0  0.2 11.3109375 0  0.1 10.81484375 0  0.1 12.00546875 0  0.1 5.85390625 0  0.1 8.235156249999999 0  0.1 8.632031249999999 0  0.1 8.83046875 0  0.1 9.425781249999998 0  0.1 9.624218749999999 0  0.1 10.21953125 0  0.1 10.41796875 0  0.1 10.61640625 0  0.1 11.60859375 0  0.1 11.80703125 0  0.1 11.41015625 0  0.1 5.258593749999999 0  0.1 7.639843749999999 0  0.1 12.7 0  0.1 4.067968749999999 0  0.1 2.87734375 0  0.09999999999999999 2.67890625 0  0.1 3.86953125 0  0.1 1.88515625 0  0.1 0.6945312499999999 0  0.1 1.28984375 0  0.1 1.48828125 0  0.1 2.08359375 0  0.1 0 0  0.1 0.29765625 0  0.1 0.8929687499999999 0  0.09999999999999999 1.09140625 0  0.1 0.4960937499999999 0  0.1 7.242968749999999 0  0.1 4.861718749999999 0  0.1 5.060156249999999 0  0.1 4.464843749999999 0  0.1 4.663281249999999 0  0.09999999999999999 3.47265625 0  0.1 6.846093749999999 0  0.1 7.044531249999999 0  0.1 6.449218749999999 0  0.1 6.647656249999999 0  0.09999999999999999 6.250781249999999 0  0.1 6.05234375 0  0.09999999999999996 1.68671875 0  0.1 4.266406249999999 0  0.1 3.07578125 0  0.09999999999999999 2.28203125 0  0.09999999999999996 2.48046875 0  0.1 3.671093749999999 0  0.1 3.27421875 0  0.09999999999999999 5.457031249999999 0  0.09999999999999996 5.65546875 0  0.09999999999999999 7.441406249999999 0  0.09999999999999999 7.838281249999999 0  0.09999999999999996 8.036718749999999 0  0.1 11.21171875 0  0.1 11.01328125 0  0.1 10.02109375 0  0.1 8.43359375 0  0.1 9.227343749999999 0  0.1 9.02890625 0  0.1 9.82265625 0  0.1 12.40234375 0  0.1 12.20390625 0  0.1 12.5755843996063 0  0 0.09921874999999999 0  0.2 0.09921874999999999 0  0.09999999999999999 0.148828125 0  0.09922180175781284 7.143749999999999 0  0 7.639843749999999 0  0.2 7.639843749999999 0  0 5.258593749999999 0  0.1007781982421872 5.159374999999999 0  0.2 5.258593749999999 0  0.09922180175781285 11.90625 0  0.09922180175781285 11.509375 0  0.1007781982421872 11.7078125 0  0 11.41015625 0  0 11.60859375 0  0.2 11.41015625 0  0.2 11.60859375 0  0.09922180175781285 10.715625 0  0.1007781982421872 10.5171875 0  0.1007781982421872 10.31875 0  0 10.41796875 0  0.2 10.41796875 0  0 10.21953125 0  0.2 10.21953125 0  0.1007781982421872 9.524999999999999 0  0 9.624218749999999 0  0.2 9.624218749999999 0  0 9.425781249999998 0  0.2 9.425781249999998 0  0.1007781982421872 5.953125 0  0.09922180175781285 8.135937499999999 0  0.1007781982421872 8.731249999999999 0  0 8.83046875 0  0.2 8.83046875 0  0 8.632031249999999 0  0.2 8.632031249999999 0  0.2 8.235156249999999 0  0 8.235156249999999 0  0.2 5.85390625 0  0 5.85390625 0  0 11.80703125 0  0 12.00546875 0  0.2 11.80703125 0  0.2 12.00546875 0  0 10.61640625 0  0 10.81484375 0  0.2 10.61640625 0  0.2 10.81484375 0  0.09922180175781287 5.556249999999999 0  0.1007781982421872 11.1125 0  0.09922180175781285 8.334375 0  0.09922180175781285 8.9296875 0  0.09922180175781285 9.723437499999999 0  0.2 12.60078125 0  0 12.60078125 0  0.1007781982421874 1.984375 0  0.1007781982421874 1.3890625 0  0 2.67890625 0  0 2.87734375 0  0.1007781982421874 2.5796875 0  0.2 2.67890625 0  0.2 2.87734375 0  0 3.86953125 0  0 4.067968749999999 0  0.1007781982421874 3.7703125 0  0.2 3.86953125 0  0.2 4.067968749999999 0  0.09922180175781263 2.9765625 0  0 2.08359375 0  0.2 2.08359375 0  0.2 1.48828125 0  0 1.48828125 0  0 1.28984375 0  0.2 1.28984375 0  0 0.6945312499999999 0  0.2 0.6945312499999999 0  0.2 1.88515625 0  0 1.88515625 0  0.09922180175781251 0.9921874999999999 0  0.1007781982421875 0.5953124999999999 0  0 0.29765625 0  0.2 0.29765625 0  0.1007781982421875 0.396875 0  0 0.4960937499999999 0  0.2 0.4960937499999999 0  0.2 1.09140625 0  0 1.09140625 0  0.1007781982421876 0.7937499999999998 0  0 0.8929687499999999 0  0.2 0.8929687499999999 0  0.1007781982421876 7.937499999999998 0  0 8.036718749999999 0  0.2 8.036718749999999 0  0 7.83828125 0  0.2 7.83828125 0  0.1007781982421876 7.739062499999999 0  0.09922180175781239 7.540624999999999 0  0.2 7.441406249999998 0  0.09922180175781239 7.3421875 0  0 7.441406249999998 0  0 5.655468749999999 0  0.09922180175781239 5.754687499999999 0  0.2 5.655468749999999 0  0 5.45703125 0  0.2 5.45703125 0  0.1007781982421876 5.3578125 0  0.1007781982421876 3.175 0  0.09922180175781241 3.571874999999999 0  0 3.671093749999999 0  0.2 3.671093749999999 0  0.1007781982421876 2.38125 0  0 2.48046875 0  0.2 2.48046875 0  0 2.28203125 0  0.2 2.28203125 0  0.1007781982421876 2.1828125 0  0 3.07578125 0  0.09922180175781242 1.5875 0  0 1.68671875 0  0.09922180175781239 1.7859375 0  0.2 1.68671875 0  0 6.05234375 0  0 6.250781249999999 0  0 6.44921875 0  0.2 6.05234375 0  0.2 6.250781249999999 0  0.1007781982421876 6.349999999999999 0  0.2 6.44921875 0  0.1007781982421876 6.548437499999999 0  0.09922180175781242 6.746874999999999 0  0.1007781982421876 6.945312499999998 0  0 6.647656249999999 0  0 6.84609375 0  0.2 6.647656249999999 0  0.2 6.84609375 0  0 3.27421875 0  0 3.47265625 0  0.2 3.07578125 0  0.2 3.27421875 0  0.1007781982421876 3.3734375 0  0.2 3.47265625 0  0.09922180175781244 4.167187499999999 0  0 4.266406249999999 0  0 4.46484375 0  0.2 4.266406249999999 0  0.1007781982421876 4.365625 0  0.2 4.46484375 0  0 5.060156249999999 0  0.2 5.060156249999999 0  0.1007781982421876 4.564062499999999 0  0.09922180175781242 4.762499999999999 0  0.1007781982421876 4.960937499999998 0  0 4.663281249999999 0  0 4.86171875 0  0.2 4.663281249999999 0  0.2 4.86171875 0  0.2 7.044531249999999 0  0.2 7.242968749999999 0  0 7.044531249999999 0  0 7.242968749999999 0  0.09922180175781239 1.190625 0  0.09922180175781241 3.96875 0  0.09922180175781241 2.778125 0  0.09922180175781195 12.303125 0  0.100778198242188 12.1046875 0  0 12.20390625 0  0 12.40234375 0  0.2 12.20390625 0  0.2 12.40234375 0  0 9.028906249999999 0  0 9.227343749999999 0  0.09922180175781198 9.128125000000001 0  0.09922180175781198 9.3265625 0  0.2 9.028906249999999 0  0.2 9.227343749999999 0  0 8.43359375 0  0.09922180175781198 8.5328125 0  0.2 8.43359375 0  0 9.822656249999998 0  0 10.02109375 0  0.09922180175781198 9.921875 0  0.09922180175781198 10.1203125 0  0.2 9.822656249999998 0  0.2 10.02109375 0  0.09922180175781196 10.9140625 0  0 11.01328125 0  0 11.21171875 0  0.09922180175781198 11.3109375 0  0.2 11.01328125 0  0.2 11.21171875 0  0.09922180175781198 6.1515625 0  0.08672180175781248 12.48896407480315 0  0.07461090087890626 0.2232421875 0  0.1253890991210938 0.0744140625 0  0.05038909912109379 4.3164077878937 0  0.1496109008789064 5.605467212106299 0  0.1496109008789064 8.0867202878937 0  0.05038909912109358 5.1101577878937 0  0.05038909912109338 4.514845287893699 0  0.05038909912109338 6.896095287893699 0  0.05038909912109338 6.499220287893699 0  0.05000000000000002 6.002734375 0  0.05000000000000002 3.819921874999999 0  0.1496109008789064 5.5070327878937 0  0.1499999999999996 7.391796874999998 0  0.05038909912109338 4.911720287893699 0  0.1496109008789069 9.971092212106297 0  0.1496109008789069 9.177342212106298 0  0.05038909912109314 12.0554702878937 0  0.149610900878906 12.2539077878937 0  0.05 12.7 0  0.1374999999999996 12.63779219980315 0  0.1496109008789064 9.772654712106299 0  0.1496109008789064 9.6742202878937 0  0.1496109008789064 8.978904712106299 0  0.1496109008789064 8.880470287893701 0  0.1496109008789064 8.383592212106299 0  0.1496109008789064 
[...]
<PointData  Scalars="sigma (Pa)"> 
<DataArray  type="Float64"  Name="sigma (Pa)"  format="ascii">5.8538116788210163e-03  5.6830841543506882e-03  -5.1660648459812162e-03  -5.6465324303964616e-03  -2.4036515834814724e-06  2.0346061703670274e-09  7.9666092014649077e-09  -7.2530265001255869e-08  6.4870458879769465e-08  3.6998614564617368e-08  -1.0695841426028935e-07  -4.2295445727301786e-07  4.2611037791514668e-08  -5.0709084253002330e-08  1.2393874818971697e-08  1.1062123720003578e-08  -6.3629678509908468e-07  -2.7761048957666197e-07  -7.6562313638092817e-09  -6.9458435063140147e-10  1.2622490391126968e-07  1.0681552501584167e-07  3.9071138709974748e-08  -3.0157202519087352e-05  -3.4136646063240383e-08  4.1691532983833569e-08  8.4043655247864896e-09  -6.5435551659995662e-08  -1.5538541661518104e-05  2.9498264119908630e-08  -1.3436890145256638e-07  -3.7914551631609177e-09  -2.1639834032576852e-07  -3.5085751461310578e-08  6.5914471841764791e-08  2.4283844892794657e-07  9.3808121098187375e-09  -1.7396441619760312e-09  1.3582143826593404e-06  -1.1319804323661253e-04  -3.0186852177374632e-08  -1.5779934933347416e-07  1.0029679109613899e-04  -2.3390208697540272e-06  -7.1149120002320148e-06  7.1579756409620972e-09  4.1929674989647627e-08  -3.9402617238254174e-08  1.0558851165134894e-08  -2.0567660958921702e-08  -2.7983970715990096e-08  -3.6627462151895893e-08  -6.8502752192679682e-09  7.8325585790914102e-08  -2.2663414605089327e-08  -9.9217822641300220e-09  -7.6905566977594594e-08  -9.4276374562277447e-09  4.2036494164247874e-06  7.3339671170999455e-11  2.3571081428131614e-09  3.8132049934910305e-08  5.5902463734472342e-09  7.3078640433039844e-08  5.4071197310705398e-08  2.5365621432554492e-07  6.0684683435662031e-08  -6.1815593077450081e-08  4.4365580038339894e-08  -1.5569278975504267e-07  -1.2436679831714496e-07  -3.8507165781213315e-07  -1.4595011225907704e-05  5.5264860849154832e-08  2.2886091437294724e-07  -1.0649105257161151e-04  -5.6313302347949158e-07  3.6387059964240803e-05  -3.7158192192947563e-08  7.8827563665810380e-08  -1.9250061701608451e-08  1.7474052806410708e-07  1.3875529772880027e-07  4.0683270026221322e-08  1.1541118634551325e-08  -1.2703084609030668e-08  -2.7250698650432054e-08  1.1602887459364638e-07  8.7799387811489359e-08  1.8675818581844868e-07  -3.3105512491008577e-08  2.8409589741777631e-08  -5.9611103207920986e-08  -1.3711834023732871e-08  1.1766645091581139e-07  -5.8927601309711759e-08  2.1783216872038568e-09  6.5423201071267080e-08  -4.5182540397524509e-09  2.7023272706686451e-08  -3.5206782679060546e-08  7.0937365418402098e-08  -1.0421054157717399e-08  6.3066540682113347e-08  6.8219914305119708e-08  4.6077116043358895e-08  3.2484014892393420e-08  -9.6534882626356505e-08  -6.9058462296761894e-09  -2.4619946800101369e-06  -2.1267620090058207e-08  -7.6070357115347817e-06  5.3899255145094875e-08  1.7160691884233590e-08  2.8613910450069036e-08  -6.1861270266956119e-08  1.4333106866088120e-08  2.9050284769669915e-06  -3.7148355479769858e-08  -1.9427842218679640e-07  -2.2987691162792364e-07  -7.0746060924712731e-07  -3.2031603560583022e-05  -5.6996087847971990e-08  3.5650033474489843e-08  -1.0146506078502443e-07  3.9877731569753134e-09  2.2666720501617198e-09  -2.0503451107234573e-07  5.2775595634398907e-08  -7.6554074948171595e-08  2.2560409392969848e-08  -2.7157145274380388e-06  -1.0708148884321446e-07  3.4192921120206825e-08  5.3973931251168753e-08  -1.2147763846670283e-07  3.0775222958644901e-09  -6.1328446779275044e-08  1.1608218328218874e-07  2.9460495103470456e-09  -6.9717961093478219e-08  2.6269268573562078e-08  -1.3158767821662025e-08  -1.2766155614886697e-04  -1.3931063636773061e-04  1.2734951091633502e-05  -1.3229430659711945e-07  3.5488643741888156e-08  -8.7290733899895964e-08  -9.3818355784798622e-09  1.4907863402404955e-08  -1.2141118640588113e-07  9.5260541299802929e-08  -6.5976296353597103e-08  -2.2609432018840540e-08  3.4422013773301249e-05  1.5472338895829475e-07  -7.3766278797776303e-08  1.2677509757398725e-07  -3.1110541265630706e-08  -6.5334398791682245e-06  -2.5060286650614788e-06  2.2244858157650468e-04  1.4314344939937250e-07  6.0285628842886855e-08  -1.5800765009743097e-07  -1.6360587514419037e-06  -2.9575936547465845e-06  -6.1455876201883412e-07  -1.0300695657040495e-06  -9.5662836212135658e-07  -1.5242364728112233e-06  -1.2696183591373349e-07  3.3474278961713950e-09  -6.9540674507836588e-08  1.2421355556919504e-08  1.1550159810787968e-08  5.6830282640177513e-08  1.9002293973322234e-07  -1.8708507526396711e-05  -5.6246262011647013e-06  -1.9962616706994011e-05  2.3870318567927639e-04  -2.3098388345091701e-06  5.3977964457911759e-08  -9.4963477645946847e-08  -9.1343372445790104e-08  2.4583754936484452e-08  -6.0884284928384680e-08  3.8360366333430832e-08  9.7085125922765040e-08  3.9306522157449585e-07  -1.2212195395587974e-08  -7.6346333434872458e-07  1.2547195823999871e-06  4.4969506276972472e-07  -5.5419775470261513e-07  -4.3376733171021120e-06  2.7990628044581197e-06  -1.8530672503074897e-04  -6.3870179218097903e-07  1.0940122853824550e-05  -1.6950334267421826e-04  -7.1944814399329369e-08  3.2749025632036651e-08  -3.1946211960490064e-08  -1.3076145936269574e-07  2.3211670617775817e-08  2.7632806121874546e-08  1.2272443761543435e-08  -1.6134231941002327e-07  3.9511844843020645e-08  -1.0434311512364050e-07  1.8176209362295885e-07  -3.9519273756420078e-08  -1.5965986266711980e-07  -5.9248908060045723e-08  1.7186380332560792e-07  -1.3716389399558888e-08  1.3999009415273152e-08  9.7033185282722778e-08  1.8057539639377861e-08  -2.0484829326448317e-06  -3.7604353656937564e-07  1.9941338813076271e-08  1.0663132898761323e-07  -1.0312784720302411e-07  2.4666862591922007e-08  -2.8774552741867885e-08  -6.2096671470304537e-08  -7.1088888563003728e-08  -1.0049318742895095e-05  5.3988865153693130e-09  -2.4310669143368354e-07  -3.7257582671978085e-08  6.8852290779263171e-08  -4.6382609950428567e-09  8.8830293241123638e-08  -1.7427110573980485e-07  6.0230388456439515e-09  3.6981790816792356e-09  -6.5727022083768570e-06  -2.7755083834884668e-08  -6.2132586895115790e-08  -4.0309161071010626e-08  -1.6358490462773137e-07  4.4663973033144252e-07  5.2176372425828559e-07  1.1428228003741116e-07  1.9933782725293043e-07  5.0127183273812180e-09  1.5346395003581232e-07  1.8624426501198501e-07  1.6144640927225378e-07  -8.8999306148367181e-10  3.4723862351925841e-08  -2.7772129941776312e-08  1.7104265586505061e-07  -1.0615858523591578e-08  -1.8863034109290986e-07  -1.7431281369218789e-08  -1.0078374029492415e-07  9.6691698371682987e-08  9.9100793292859364e-08  1.5378607500878675e-07  -4.0594735702205029e-08  4.4656060734632984e-09  -6.5917860529872991e-08  -5.1362045393133592e-08  5.0287090170814836e-08  -1.7677534105586239e-07  -4.0027251307145716e-08  6.4202811967947794e-09  -3.5389747193108619e-08  2.5783666619127128e-07  1.1740670567852052e-07  1.8123522304429345e-07  4.1905324774565150e-08  1.2035070562284199e-07  -3.4815435283207942e-09  8.8501679150663240e-08  7.5062929526349750e-08  -1.6189405042691986e-08  2.0924161272912042e-05  -3.0854729656704608e-08  2.4055828421795460e-08  -2.2845333076460207e-06  -5.8663313414393007e-05  9.6017158966819267e-06  -6.1342032335117612e-05  -5.8966804320491284e-05  -6.5952363526236921e-06  -5.9794864795007267e-08  -3.4426978517093306e-08  -4.1531164829968972e-06  -6.0674878304706161e-05  1.2216496298498550e-07  -5.5003143312025911e-05  -5.8699292754500473e-05  1.0890620427847408e-07  -6.8053438374023989e-08  6.4335193152057143e-08  -9.5665544154001715e-09  1.2379756816457687e-08  -8.2651292411017739e-08  6.3563203313760823e-08  -3.7924586371430337e-08  -3.0813180117902946e-11  1.0156251314086785e-07  -2.0878625423473560e-08  5.7791755173052911e-08  5.5467182519886100e-08  1.0321839693267438e-07  1.9398395809828942e-07  -1.6952393811375188e-08  -5.8251269140496159e-10  3.8297672073213488e-09  -5.1215703679736991e-06  -3.1010568256579293e-06  -6.8008318119457907e-07  -2.2446309541710379e-06  -6.9925299153897518e-07  -7.9430854553641341e-07  -2.2156243358292684e-06  1.0145920808355065e-08  1.3071720253645244e-09  -3.1952910375114505e-06  -5.5314154282140306e-06  -6.3756374333233269e-08  -2.9876911724850607e-08  4.2957710249576273e-08  4.9550499098448959e-08  4.3434150855378186e-08  1.1489803073749861e-07  5.0524848348568668e-09  2.5012781892876919e-07  2.9024014749186481e-08  -3.3950181746110703e-08  -2.8974472158866929e-08  8.9997978900294494e-08  -2.5777796320564530e-06  -4.4900704978522425e-05  2.1424609923857510e-07  -6.1325066673221000e-07  1.7763760423900920e-05  -4.6821837220474184e-08  -1.5414843806164088e-07  1.3168372518816018e-07  1.0094690731274259e-07  -1.0770903129180334e-05  9.8903982809243370e-05  1.9965965910622030e-08  -1.1214143356934082e-08  1.3297028917709499e-08  1.9017982740856166e-08  1.4609240289257122e-07  -8.0292903857977482e-08  1.1861191706738010e-07  -1.9194076765102633e-07  -3.3912578917695616e-07  -2.0359408033101119e-08  5.0349610339120558e-08  4.1365179786388519e-08  -9.2338580864474853e-08  -8.8057935178074300e-08  -1.2597098771509662e-08  5.7049694016776420e-08  1.0390428664962500e-07  -2.8794362389203330e-07  -5.6067752863364639e-08  3.0483406965641296e-08  5.4389914757455724e-08  -4.6988988673546914e-09  -6.1224861663078970e-08  4.6500116800083655e-09  1.6275763424898497e-08  2.1644043967185425e-07  -1.2035589378108860e-07  -2.9397753925754429e-07  -4.8047764079614452e-08  1.7284948114493379e-09  1.4853211331442426e-08  3.3008039574381290e-08  -7.7588120884089616e-07  -7.5552261948026557e-07  -5.3474002289185757e-07  1.0476502952485048e-05  1.7139606926052361e-07  -5.4677056808558942e-06  -7.8806878311324139e-07  6.3649063296798900e-05  5.0562449999627971e-08  -5.2261814793982504e-07  -1.6322924707810981e-07  -4.5979710858813586e-07  7.4725151816019201e-08  -2.4216394650646520e-05  -2.6307906548210741e-05  -4.1219392043725355e-08  1.0577617961178458e-07  -5.9431329607183902e-08  -4.7619953745588245e-08  1.8821977807577905e-08  1.0113174719967506e-03  -3.6943087167915766e-06  1.0150060645435092e-07  -2.8186702523595399e-08  -1.4554281529602678e-08  -1.3039508689919034e-07  3.7463907814955635e-08  -1.9729144992126380e-07  4.1071154607902001e-08  9.2255271562086092e-08  3.9357853292434549e-08  -1.5464074550979728e-07  -6.4856993162431562e-08  -5.1881708855379908e-09  -3.5635244727960800e-08  -5.8256193130192840e-07  -6.9956363370110999e-06  6.0404997118584467e-09  2.8272425590084146e-08  4.1199481556924873e-08  8.3048649355490823e-08  1.3861480584574427e-07  -9.8756014301032544e-08  -1.0859314892488795e-07  -1.5454660763699164e-07  -1.9557123637964987e-08  1.8921768125875152e-07  -4.3765375179855997e-08  3.7341059970537589e-08  -3.2392289597295592e-08  1.1022257966464858e-07  -1.7860060410352452e-08  4.3011381709387512e-08  -9.9634934989415722e-08  -3.9307105622424518e-05  -3.2935861851971364e-05  -1.4789362594210255e-04  -4.1615036865072620e-05  -1.2830635324580784e-07  -4.9912027022614472e-08  3.7221488134854099e-05  -8.2508366223443325e-08  -4.5673297843922245e-10  -1.1567377317121211e-05  -2.1008774701805943e-07  -7.5670431165388958e-06  -1.2999737657599785e-07  -2.5199481503737539e-06  -9.1208611297090094e-08  -1.3163939762132626e-07  1.0117583129671376e-07  8.9710115428157904e-08  -1.0316311659585274e-07  2.1669143270401768e-08  7.7379179389793056e-08  -3.2419323470367224e-08  5.4129237286081851e-08  8.7460537815058157e-04  2.2931953010934224e-08  1.6707906344083724e-07  3.0687089486071671e-08  7.6888921825356870e-08  6.3244080476134524e-08  -5.6417505558102823e-08  -1.8074936570615535e-08  5.8638090296424660e-08  2.2269841053080576e-08  -9.8412796905656796e-08  1.2321146702382164e-07  -6.2490354049896103e-08  -6.0361339177366663e-09  2.8943983662333359e-08  1.7631725293994186e-07  9.2034280022759218e-08  9.2001620216175941e-08  5.5446751380059214e-08  -7.5581881190116929e-08  -9.3813449396894620e-08  1.2623744878543937e-08  -1.5180069408164558e-07  -1.0451291235170831e-07  -6.8683694334159696e-08  3.3171561423520633e-08  7.1861488172214471e-09  8.1027826823148015e-08  -6.5747003865039743e-07  3.5197887577011829e-08  3.4326998533809779e-05  -2.1796359246174615e-07  -1.1421015526967845e-05  9.0593198322193373e-08  -1.6613463921760045e-07  -5.9684869312463499e-05  -2.3340908904001096e-06  -2.7761344959711341e-06  -4.2813594595137168e-06  -8.5209720709969799e-07  -2.9529542664291389e-06  -1.0000147779336935e-05  7.0245815555153822e-05  -8.0514333180901891e-08  -2.5431500384611203e-08  1.3315425856468654e-07  -1.7755030289016694e-07  -7.3716522542039316e-08  2.0218319362363131e-07  -1.8108701124122302e-07  8.6846680799431456e-08  1.2006018241170926e-07  -5.9908487081193577e-08  -4.1259344465213629e-09  1.3673341437833174e-07  -9.0846069331655926e-08  -1.3537042671329575e-06  -1.5493903076224766e-07  -1.0515484621379901e-07  -1.0938506426192440e-08  -3.6804954017248814e-06  -6.8465312705173306e-07  9.1182739738173123e-09  6.2696380975428858e-08  -5.6803744753504206e-08  1.9661706142932503e-07  4.1935480563915494e-09  -4.9602528199255864e-08  1.3805733681120637e-07  8.7152969441363269e-09  2.3428953501674367e-08  -5.0628459192478675e-06  -1.3313284365204593e-07  1.6486017312886945e-08  3.4861203286765802e-08  1.8378867099469448e-07  1.0067922577816438e-07  1.7550963977558186e-07  6.5583673697419921e-08  2.9943449042830710e-08  -2.1343108175705347e-08  -2.2106812028983287e-08  1.3871896602087271e-07  -1.9871825152966959e-04  5.8990401470323519e-04  -1.5783298228433890e-06  -8.8744638616703880e-07  -2.1206488674579347e-08  5.7490943335581735e-08  -3.1617345388684055e-08  -1.3127496254267049e-07  -6.8527003156902556e-07  -1.5316077631794516e-07  -3.0219518165960058e-07  -2.4781008463407381e-07  -9.1854054576708075e-07  -5.4249278775614716e-06  2.1237110566618411e-08  6.5368550001308157e-05  8.0231270457651728e-08  9.5023539933378811e-08  -1.6374552347626901e-06  -5.5465693478034984e-05  -1.3848643458725179e-04  -8.4155777826123159e-07  -1.4714547753071563e-06  -1.0871162532553591e-05  -3.4087914205468957e-05  -2.1754526139386158e-04  -5.9042431241302801e-08  7.6984167843892195e-08  2.5832717125293358e-08  1.0933603511620709e-07  6.4460498962570594e-04  -8.6898537142839966e-07  3.2764754411487266e-08  9.0380278882736850e-08  3.3988671775736800e-08  -5.7528772194721035e-08  3.8508937132965426e-08  9.2349927626494913e-08  5.8143951824594269e-09  -1.0401565255414718e-07  -9.4737572140811690e-08  5.3546964435538622e-08  6.6598063991654693e-08  -3.2090363452879803e-07  1.0683163097123566e-07  3.1287881346103413e-08  -8.5445490236949075e-08  -3.2771405280372521e-08  -3.5472395745340367e-08  -9.9841637650961901e-08  -2.6612783380041774e-06  -7.5816700936813563e-07  -6.3972746426747128e-08  -6.3034088046331057e-08  -5.0831197536596630e-08  -5.4589164635079700e-08  -2.1347601971347450e-07  8.2974000061832067e-08  -1.4209218494827883e-07  8.3898439978663170e-08  -3.4767388212634262e-08  -1.0779614666474592e-07  1.4463393584267931e-08  -5.0118248662389227e-08  -5.4195498998391822e-08  -6.6255189070928558e-08  1.0196141464573938e-07  1.3780265837704209e-07  7.7223459353492154e-08  5.0287650472255723e-08  8.2079772881194499e-08  -7.0190388150311145e-08  2.4339865413886481e-07  -1.9827411680971613e-08  -1.5994612253414252e-06  -2.2627157229939315e-07  -2.9082506111423568e-07  -4.6760081071511947e-08  -1.4889076280254239e-09  -1.0476585541006097e-06  3.9707078051794369e-08  -3.9983929035397200e-06  -1.3805997126825148e-06  -2.9141056316445865e-06  6.6889081887108574e-05  -7.1896524448265432e-08  -5.5237873294692620e-08  -4.7063100860565590e-08  1.8583129123707679e-08  8.1118512982202041e-09  -8.0198623376640107e-08  1.1024133232836081e-07  1.3619396916055970e-07  1.0564085677330567e-05  -1.6235895199392865e-05  -4.1394908053036549e-06  1.9084410995740642e-06  1.6156994180138982e-07  5.4911707858936592e-07  -1.6191221348905258e-07  9.6656189730761732e-07  3.9659768936095933e-06  -9.6955926424404573e-06  -8.2946490569358634e-04  -2.5148764446486019e-06  1.6851789190955773e-08  7.2882138575643182e-08  1.0501323362869210e-05  1.4965256565413249e-05  5.8340806424886423e-05  3.5675478265317738e-08  7.0341205945631340e-05  -1.5487865292002429e-07  -3.0397253521514138e-08  -9.1498978314426195e-04  2.6580877115068981e-08  -6.5748372852984085e-09  -1.1731487439492301e-07  -1.2468718954236230e-07  -1.6567167260089363e-08  -3.4314579358052773e-08  1.0243443950265273e-07  1.8548409607677123e-07  -3.9005807625822240e-08  2.7202060368596406e-08  -2.0658833161460616e-08  -1.5146316220616452e-06  -4.4255491191035181e-07  1.1774397663837520e-07  -3.5905926183043916e-09  -4.5303864753970095e-05  -1.8113001543584519e-05  6.7898491847692003e-08  -4.7772130824884102e-08  9.1831176887717449e-08  -7.0449191091249379e-08  1.5524274068411089e-07  -1.1947011697385005e-07  5.4426409775272172e-08  -1.6351118904610828e-05  -7.8388689452071594e-08  3.4432191902603614e-08  -1.5811946383570462e-08  7.6206965003946376e-05  -3.2108100954460862e-06  -2.2360350488221779e-08  3.3099040290579580e-08  -3.1431861461936775e-08  1.5888989385314475e-09  9.1879876018623766e-08  5.2328335242403081e-09  -4.3481110209620795e-08  -8.1568753813937833e-08  6.2324379415436661e-08  -3.3537222593889133e-08  -3.5308402483176868e-05  -2.0808761157054598e-07  -1.6086994838942094e-06  -1.9188361284719933e-08  -1.3234591776269637e-07  -1.2435192051279216e-06  1.0936794448661143e-07  1.1810652297717830e-07  3.2028295889491772e-07  1.6014555598172769e-07  8.7491502552914071e-05  -9.8705670627099158e-07  -9.6223710653677145e-08  -8.1887439058666737e-07  -3.4624546059233759e-06  -1.9495361991049138e-08  -3.1459208581316559e-08  -4.9487113702645883e-08  -2.4727314864238725e-08  -5.6628658329443493e-08  -5.1701076392088297e-09  4.7394894219451587e-08  -1.0408815979740566e-07  -1.4853040924369451e-06  -1.7757013051837792e-06  -2.3301610908862412e-08  -8.5099091449654427e-08  4.0426838859077157e-08  -4.9860872388780656e-08  -1.3113650114319160e-04  -4.3351893488614998e-06  2.8189781322721296e-08  -6.2375987139960736e-07  -2.5210945860213121e-06  1.7147761783311663e-07  -5.7505600394851420e-08  -5.8780099278811620e-06  -1.0095337046839288e-04  -1.1867294719884970e-04  -9.3227351360617800e-05  9.3412018075033344e-08  -1.0634875944315545e-08  1.3071155953880234e-07  1.5388239561365258e-08  -5.8846002879595931e-09  1.4861585836766715e-08  -1.2053353505171419e-07  2.5255409584054008e-08  3.1281834056886172e-08  1.8092396609665455e-08  -1.2005968838716101e-07  3.3128719314490348e-08  2.1645621909372204e-07  8.8138599522655268e-08  5.1349206004245360e-08  -3.2890030141282957e-06  -2.3047275960142821e-06  3.0032171919351997e-08  2.9563938102686234e-08  -7.9461291635043705e-08  7.7792650462310068e-08  9.7470431031867603e-08  3.5341715366506741e-08  -1.9990938992794948e-07  -1.7591427730981566e-07  4.3635938026133747e-08  8.8432383673903959e-08  -9.1557783026043218e-08  -9.4410746757559774e-08  6.8407357600436599e-08  -8.6168556680757270e-10  -3.5487228843728457e-06  -1.1298666812982658e-05  2.3317374785283127e-04  -4.0866743727989800e-07  -1.3784929170179750e-07  -1.0081330686965291e-07  -6.3801549265633936e-08  -4.3138823166862027e-06  -2.1745095207913656e-07  1.0267650205667965e-07  -3.9900237573987461e-05  -1.1982774869464565e-06  -3.2217183475278517e-08  -1.3743600543889250e-09  1.0247929686591650e-07  -1.6350040355637699e-07  1.2693933580791656e-07  1.2899573944297825e-07  1.0562051915866914e-07  9.2039235648771201e-08  5.7053563136208138e-08  1.7117197212543761e-08  1.1970585415171220e-07  -1.1042419835425841e-07  7.4502275706077353e-08  -1.8313749539466579e-07  8.7813658793813971e-08  2.0316027187329367e-07  -2.2600889850726159e-08  6.9459103271880136e-08  7.9476555905512159e-08  3.0280527123651907e-07  -4.4279899502841587e-08  -2.7485089457583006e-07  -2.0572692496130700e-07  1.1246296857756558e-07  4.2474135677548570e-08  -4.2126270319259593e-09  -1.1704844388283304e-08  7.2413094177077847e-08  -8.87106738613581