<?xml version="1.0"?>
<VTKFile type="UnstructuredGrid"  version="0.1"  >
<UnstructuredGrid>
<Piece  NumberOfPoints="16808" NumberOfCells="31534">
<Points>
<DataArray  type="Float64"  NumberOfComponents="3"  format="ascii">0 12.7 0  0 0 0  0.2 0 0  0.2 12.7 0  0.2 6.35 0  0 6.35 0  0 3.175 0  0.2 3.175 0  0 9.524999999999999 0  0.2 9.524999999999999 0  0 11.1125 0  0.2 11.1125 0  0.2 1.5875 0  0 1.5875 0  0.2 4.762499999999999 0  0 4.762499999999999 0  0.2 7.937499999999999 0  0 7.937499999999999 0  0.2 10.31875 0  0 10.31875 0  0.2 11.90625 0  0 11.90625 0  0 5.556249999999999 0  0.2 5.556249999999999 0  0 0.79375 0  0.2 0.79375 0  0 2.38125 0  0.2 2.38125 0  0.2 7.143749999999999 0  0 7.143749999999999 0  0 8.731249999999999 0  0.2 8.731249999999999 0  0 3.96875 0  0.2 3.96875 0  0.2 11.509375 0  0 11.509375 0  0 10.715625 0  0.2 10.715625 0  0 7.540624999999999 0  0.2 7.540624999999999 0  0.2 2.778125 0  0 2.778125 0  0.2 5.159374999999999 0  0 5.159374999999999 0  0.2 5.953125 0  0 5.953125 0  0.2 8.334375 0  0 8.334375 0  0.2 0.396875 0  0 0.396875 0  0 1.190625 0  0.2 1.190625 0  0.2 3.571874999999999 0  0 3.571874999999999 0  0.2 4.365625 0  0 4.365625 0  0.2 1.984375 0  0 1.984375 0  0.2 6.746874999999999 0  0 6.746874999999999 0  0.2 9.128124999999999 0  0 9.128124999999999 0  0.2 9.921874999999998 0  0 9.921874999999998 0  0 12.303125 0  0.2 12.303125 0  0 11.7078125 0  0.2 11.7078125 0  0.2 10.5171875 0  0 10.5171875 0  0.2 8.135937499999999 0  0 8.135937499999999 0  0.2 5.754687499999999 0  0 5.754687499999999 0  0 5.3578125 0  0.2 5.3578125 0  0 7.739062499999999 0  0.2 7.739062499999999 0  0 3.770312499999999 0  0.2 3.770312499999999 0  0.2 1.3890625 0  0 1.3890625 0  0.2 2.579687499999999 0  0 2.579687499999999 0  0 2.9765625 0  0.2 2.9765625 0  0 4.1671875 0  0.2 4.1671875 0  0 0.1984375 0  0.2 0.1984375 0  0 0.5953124999999999 0  0.2 0.5953124999999999 0  0.2 1.7859375 0  0 1.7859375 0  0 2.1828125 0  0.2 2.1828125 0  0.2 0.9921874999999999 0  0 0.9921874999999999 0  0.2 12.1046875 0  0 12.1046875 0  0.2 12.5015625 0  0 12.5015625 0  0 9.723437499999999 0  0.2 9.723437499999999 0  0 8.9296875 0  0.2 8.9296875 0  0 9.326562499999998 0  0.2 9.326562499999998 0  0 6.548437499999999 0  0.2 6.548437499999999 0  0 6.945312499999999 0  0.2 6.945312499999999 0  0 3.3734375 0  0.2 3.3734375 0  0 8.532812499999999 0  0.2 8.532812499999999 0  0 6.1515625 0  0.2 6.1515625 0  0 4.564062499999999 0  0.2 4.564062499999999 0  0 4.960937499999999 0  0.2 4.960937499999999 0  0.2 7.342187499999999 0  0 7.342187499999999 0  0 10.1203125 0  0.2 10.1203125 0  0.2 10.9140625 0  0 10.9140625 0  0 11.3109375 0  0.2 11.3109375 0  0.1 10.81484375 0  0.1 12.00546875 0  0.1 5.85390625 0  0.1 8.235156249999999 0  0.1 8.632031249999999 0  0.1 8.83046875 0  0.1 9.425781249999998 0  0.1 9.624218749999999 0  0.1 10.21953125 0  0.1 10.41796875 0  0.1 10.61640625 0  0.1 11.60859375 0  0.1 11.80703125 0  0.1 11.41015625 0  0.1 5.258593749999999 0  0.1 7.639843749999999 0  0.1 12.7 0  0.1 4.067968749999999 0  0.1 2.87734375 0  0.09999999999999999 2.67890625 0  0.1 3.86953125 0  0.1 1.88515625 0  0.1 0.6945312499999999 0  0.1 1.28984375 0  0.1 1.48828125 0  0.1 2.08359375 0  0.1 0 0  0.1 0.29765625 0  0.1 0.8929687499999999 0  0.09999999999999999 1.09140625 0  0.1 0.4960937499999999 0  0.1 7.242968749999999 0  0.1 4.861718749999999 0  0.1 5.060156249999999 0  0.1 4.464843749999999 0  0.1 4.663281249999999 0  0.09999999999999999 3.47265625 0  0.1 6.846093749999999 0  0.1 7.044531249999999 0  0.1 6.449218749999999 0  0.1 6.647656249999999 0  0.09999999999999999 6.250781249999999 0  0.1 6.05234375 0  0.09999999999999996 1.68671875 0  0.1 4.266406249999999 0  0.1 3.07578125 0  0.09999999999999999 2.28203125 0  0.09999999999999996 2.48046875 0  0.1 3.671093749999999 0  0.1 3.27421875 0  0.09999999999999999 5.457031249999999 0  0.09999999999999996 5.65546875 0  0.09999999999999999 7.441406249999999 0  0.09999999999999999 7.838281249999999 0  0.09999999999999996 8.036718749999999 0  0.1 11.21171875 0  0.1 11.01328125 0  0.1 10.02109375 0  0.1 8.43359375 0  0.1 9.227343749999999 0  0.1 9.02890625 0  0.1 9.82265625 0  0.1 12.40234375 0  0.1 12.20390625 0  0.1 12.5755843996063 0  0 0.09921874999999999 0  0.2 0.09921874999999999 0  0.09999999999999999 0.148828125 0  0.09922180175781284 7.143749999999999 0  0 7.639843749999999 0  0.2 7.639843749999999 0  0 5.258593749999999 0  0.1007781982421872 5.159374999999999 0  0.2 5.258593749999999 0  0.09922180175781285 11.90625 0  0.09922180175781285 11.509375 0  0.1007781982421872 11.7078125 0  0 11.41015625 0  0 11.60859375 0  0.2 11.41015625 0  0.2 11.60859375 0  0.09922180175781285 10.715625 0  0.1007781982421872 10.5171875 0  0.1007781982421872 10.31875 0  0 10.41796875 0  0.2 10.41796875 0  0 10.21953125 0  0.2 10.21953125 0  0.1007781982421872 9.524999999999999 0  0 9.624218749999999 0  0.2 9.624218749999999 0  0 9.425781249999998 0  0.2 9.425781249999998 0  0.1007781982421872 5.953125 0  0.09922180175781285 8.135937499999999 0  0.1007781982421872 8.731249999999999 0  0 8.83046875 0  0.2 8.83046875 0  0 8.632031249999999 0  0.2 8.632031249999999 0  0.2 8.235156249999999 0  0 8.235156249999999 0  0.2 5.85390625 0  0 5.85390625 0  0 11.80703125 0  0 12.00546875 0  0.2 11.80703125 0  0.2 12.00546875 0  0 10.61640625 0  0 10.81484375 0  0.2 10.61640625 0  0.2 10.81484375 0  0.09922180175781287 5.556249999999999 0  0.1007781982421872 11.1125 0  0.09922180175781285 8.334375 0  0.09922180175781285 8.9296875 0  0.09922180175781285 9.723437499999999 0  0.2 12.60078125 0  0 12.60078125 0  0.1007781982421874 1.984375 0  0.1007781982421874 1.3890625 0  0 2.67890625 0  0 2.87734375 0  0.1007781982421874 2.5796875 0  0.2 2.67890625 0  0.2 2.87734375 0  0 3.86953125 0  0 4.067968749999999 0  0.1007781982421874 3.7703125 0  0.2 3.86953125 0  0.2 4.067968749999999 0  0.09922180175781263 2.9765625 0  0 2.08359375 0  0.2 2.08359375 0  0.2 1.48828125 0  0 1.48828125 0  0 1.28984375 0  0.2 1.28984375 0  0 0.6945312499999999 0  0.2 0.6945312499999999 0  0.2 1.88515625 0  0 1.88515625 0  0.09922180175781251 0.9921874999999999 0  0.1007781982421875 0.5953124999999999 0  0 0.29765625 0  0.2 0.29765625 0  0.1007781982421875 0.396875 0  0 0.4960937499999999 0  0.2 0.4960937499999999 0  0.2 1.09140625 0  0 1.09140625 0  0.1007781982421876 0.7937499999999998 0  0 0.8929687499999999 0  0.2 0.8929687499999999 0  0.1007781982421876 7.937499999999998 0  0 8.036718749999999 0  0.2 8.036718749999999 0  0 7.83828125 0  0.2 7.83828125 0  0.1007781982421876 7.739062499999999 0  0.09922180175781239 7.540624999999999 0  0.2 7.441406249999998 0  0.09922180175781239 7.3421875 0  0 7.441406249999998 0  0 5.655468749999999 0  0.09922180175781239 5.754687499999999 0  0.2 5.655468749999999 0  0 5.45703125 0  0.2 5.45703125 0  0.1007781982421876 5.3578125 0  0.1007781982421876 3.175 0  0.09922180175781241 3.571874999999999 0  0 3.671093749999999 0  0.2 3.671093749999999 0  0.1007781982421876 2.38125 0  0 2.48046875 0  0.2 2.48046875 0  0 2.28203125 0  0.2 2.28203125 0  0.1007781982421876 2.1828125 0  0 3.07578125 0  0.09922180175781242 1.5875 0  0 1.68671875 0  0.09922180175781239 1.7859375 0  0.2 1.68671875 0  0 6.05234375 0  0 6.250781249999999 0  0 6.44921875 0  0.2 6.05234375 0  0.2 6.250781249999999 0  0.1007781982421876 6.349999999999999 0  0.2 6.44921875 0  0.1007781982421876 6.548437499999999 0  0.09922180175781242 6.746874999999999 0  0.1007781982421876 6.945312499999998 0  0 6.647656249999999 0  0 6.84609375 0  0.2 6.647656249999999 0  0.2 6.84609375 0  0 3.27421875 0  0 3.47265625 0  0.2 3.07578125 0  0.2 3.27421875 0  0.1007781982421876 3.3734375 0  0.2 3.47265625 0  0.09922180175781244 4.167187499999999 0  0 4.266406249999999 0  0 4.46484375 0  0.2 4.266406249999999 0  0.1007781982421876 4.365625 0  0.2 4.46484375 0  0 5.060156249999999 0  0.2 5.060156249999999 0  0.1007781982421876 4.564062499999999 0  0.09922180175781242 4.762499999999999 0  0.1007781982421876 4.960937499999998 0  0 4.663281249999999 0  0 4.86171875 0  0.2 4.663281249999999 0  0.2 4.86171875 0  0.2 7.044531249999999 0  0.2 7.242968749999999 0  0 7.044531249999999 0  0 7.242968749999999 0  0.09922180175781239 1.190625 0  0.09922180175781241 3.96875 0  0.09922180175781241 2.778125 0  0.09922180175781195 12.303125 0  0.100778198242188 12.1046875 0  0 12.20390625 0  0 12.40234375 0  0.2 12.20390625 0  0.2 12.40234375 0  0 9.028906249999999 0  0 9.227343749999999 0  0.09922180175781198 9.128125000000001 0  0.09922180175781198 9.3265625 0  0.2 9.028906249999999 0  0.2 9.227343749999999 0  0 8.43359375 0  0.09922180175781198 8.5328125 0  0.2 8.43359375 0  0 9.822656249999998 0  0 10.02109375 0  0.09922180175781198 9.921875 0  0.09922180175781198 10.1203125 0  0.2 9.822656249999998 0  0.2 10.02109375 0  0.09922180175781196 10.9140625 0  0 11.01328125 0  0 11.21171875 0  0.09922180175781198 11.3109375 0  0.2 11.01328125 0  0.2 11.21171875 0  0.09922180175781198 6.1515625 0  0.08672180175781248 12.48896407480315 0  0.07461090087890626 0.2232421875 0  0.1253890991210938 0.0744140625 0  0.05038909912109379 4.3164077878937 0  0.1496109008789064 5.605467212106299 0  0.1496109008789064 8.0867202878937 0  0.05038909912109358 5.1101577878937 0  0.05038909912109338 4.514845287893699 0  0.05038909912109338 6.896095287893699 0  0.05038909912109338 6.499220287893699 0  0.05000000000000002 6.002734375 0  0.05000000000000002 3.819921874999999 0  0.1496109008789064 5.5070327878937 0  0.1499999999999996 7.391796874999998 0  0.05038909912109338 4.911720287893699 0  0.1496109008789069 9.971092212106297 0  0.1496109008789069 9.177342212106298 0  0.05038909912109314 12.0554702878937 0  0.149610900878906 12.2539077878937 0  0.05 12.7 0  0.1374999999999996 12.63779219980315 0  0.1496109008789064 9.772654712106299 0  0.1496109008789064 9.6742202878937 0  0.1496109008789064 8.978904712106299 0  0.1496109008789064 8.880470287893701 0  0.1496109008789064 8.383592212106299 0  0.1496109008789064 
[...]
<PointData  Scalars="sigma (Pa)"> 
<DataArray  type="Float64"  Name="sigma (Pa)"  format="ascii">2.9943840019066973e-02  2.9070522263033152e-02  -2.6425827779165797e-02  -2.8883550246414352e-02  -1.2295332129937187e-05  1.0407808208408527e-08  4.0751498327595953e-08  -3.7101168142520386e-07  3.3183035748562204e-07  1.8925813794706924e-07  -5.4712149026681755e-07  -2.1635271520222769e-06  2.1796699793707800e-07  -2.5939082139898196e-07  6.3398001840479586e-08  5.6585513112871086e-08  -3.2548314093268290e-06  -1.4200526627578908e-06  -3.9164051156996351e-08  -3.5528651808229041e-09  6.4567474722922776e-07  5.4639046543951513e-07  1.9986031474419695e-07  -1.5426229853919047e-04  -1.7461825614463335e-07  2.1326356623753976e-07  4.2990617076963125e-08  -3.3472064163191868e-07  -7.9483870340641094e-05  1.5089187983076418e-07  -6.8733403791742243e-07  -1.9393695464673884e-08  -1.1069365358425443e-06  -1.7947320495496782e-07  3.3717046332897593e-07  1.2421847142502048e-06  4.7985284052469278e-08  -8.8989326194391390e-09  6.9476359032874505e-06  -5.7903880170770655e-04  -1.5441401674784446e-07  -8.0718660727531397e-07  5.1304538516807653e-04  -1.1964728136926543e-05  -3.6394710929155759e-05  3.6614879108648802e-08  2.1448130550620576e-07  -2.0155480969287240e-07  5.4011402441613507e-08  -1.0520918651856805e-07  -1.4314558538122100e-07  -1.8735946010917000e-07  -3.5040221346294130e-08  4.0065646082216317e-07  -1.1592904389477909e-07  -5.0752373534382234e-08  -3.9339309178129731e-07  -4.8224913475264951e-08  2.1502811531661795e-05  3.7563585633161163e-10  1.2058137626836282e-08  1.9505601807664593e-07  2.8595834942187120e-08  3.7381721549092278e-07  2.7658888840655539e-07  1.2975205827789749e-06  3.1041870402638143e-07  -3.1620360325849432e-07  2.2694207798396102e-07  -7.9641085171180921e-07  -6.3616929745331335e-07  -1.9697462948583150e-06  -7.4657454612986782e-05  2.8269480673332371e-07  1.1706851802530006e-06  -5.4473071733746178e-04  -2.8805784479355791e-06  1.8612971573583821e-04  -1.9007425677055986e-07  4.0322442645755841e-07  -9.8469339135535666e-08  8.9384532103038021e-07  7.0977124169382442e-07  2.0810605134735357e-07  5.9035957684472339e-08  -6.4980042522364911e-08  -1.3939495753789196e-07  5.9351899920667901e-07  4.4911776619004236e-07  9.5531895436185218e-07  -1.6934369075661498e-07  1.4532281136311864e-07  -3.0492697237437082e-07  -7.0139895128560524e-08  6.0189588524756519e-07  -3.0143071583236617e-07  1.1142755058503036e-08  3.3465750289289396e-07  -2.3112136133901293e-08  1.3823138484119459e-07  -1.8009227756451606e-07  3.6286393078797805e-07  -5.3306320690609405e-08  3.2260241107786255e-07  3.4896368930681022e-07  2.3569673098158045e-07  1.6616424888370892e-07  -4.9380224687058198e-07  -3.5325548539842661e-08  -1.2593773111961299e-05  -1.0879000097335584e-07  -3.8912058197598538e-05  2.7570972723554789e-07  8.7781828912264023e-08  1.4636799139235884e-07  -3.1643747980928181e-07  7.3317763642966943e-08  1.4860011346005846e-05  -1.9002398879272820e-07  -9.9378692603527249e-07  -1.1758837154884544e-06  -3.6188535130576165e-06  -1.6385036990961121e-04  -2.9155013435385256e-07  1.8235947261823240e-07  -5.1902157124303507e-07  2.0398646354015328e-08  1.1594650987235030e-08  -1.0488073981011113e-06  2.6996143753212319e-07  -3.9159486793524254e-07  1.1540262653723062e-07  -1.3891618775220805e-05  -5.4775032795405830e-07  1.7490630675146303e-07  2.7609133125071740e-07  -6.2139099960095765e-07  1.5742619356839719e-08  -3.1371161402193048e-07  5.9379211413828513e-07  1.5069577761807486e-08  -3.5662634424054747e-07  1.3437449035182611e-07  -6.7310673681830941e-08  -6.5302360649016004e-04  -7.1261182271504196e-04  6.5142741013905585e-05  -6.7672139442469132e-07  1.8153409778302195e-07  -4.4651562857632850e-07  -4.7990375144385605e-08  7.6257754012080266e-08  -6.2105126700999712e-07  4.8728359584724012e-07  -3.3748678414888914e-07  -1.1565318942353778e-07  1.7607796938364883e-04  7.9145224516545058e-07  -3.7733459194804426e-07  6.4848908778494641e-07  -1.5913887977982111e-07  -3.3420323084662189e-05  -1.2819019485495308e-05  1.1378850400538428e-03  7.3221784824430559e-07  3.0837686673206043e-07  -8.0825214788704277e-07  -8.3688857185617807e-06  -1.5128896441405914e-05  -3.1436354497969284e-06  -5.2690863466371453e-06  -4.8934146471404710e-06  -7.7968849106297389e-06  -6.4944440712092340e-07  1.7122850490893179e-08  -3.5571948921153670e-07  6.3538760994137914e-08  5.9082161215233164e-08  2.9070281914358250e-07  9.7201886861363663e-07  -9.5699108580376996e-05  -2.8771493772670310e-05  -1.0211421842882554e-04  1.2210317647383098e-03  -1.1815454112147977e-05  2.7611204459461687e-07  -4.8576396819066248e-07  -4.6724622581991796e-07  1.2575232389048077e-07  -3.1143963804322139e-07  1.9622386964522917e-07  4.9661668861683005e-07  2.0106355921019258e-06  -6.2468710747057300e-08  -3.9053227537134952e-06  6.4182321710196094e-06  2.3003126430580972e-06  -2.8348723554480511e-06  -2.2188379968724235e-05  1.4317968264665493e-05  -9.4789433518685626e-04  -3.2671340337558585e-06  5.5961706158926399e-05  -8.6705573339377999e-04  -3.6801727745714257e-07  1.6752013284760118e-07  -1.6341358665525510e-07  -6.6888048461678705e-07  1.1873401197227919e-07  1.4134924054311419e-07  6.2776881099847554e-08  -8.2530997480906049e-07  2.0211387401960847e-07  -5.3374353104930135e-07  9.2976266316522633e-07  -2.0215179092675066e-07  -8.1670335310362478e-07  -3.0307443130961151e-07  8.7913017316873834e-07  -7.0162594194139211e-08  7.1609085924775822e-08  4.9635127882159422e-07  9.2369040671621805e-08  -1.0478547730795234e-05  -1.9235651854296650e-06  1.0200536242559578e-07  5.4544788837236698e-07  -5.2752668036694604e-07  1.2617770075660496e-07  -1.4718926336003327e-07  -3.1764076850149953e-07  -3.6363930059647715e-07  -5.1405000211094380e-05  2.7616768622856186e-08  -1.2435568915659934e-06  -1.9058268108209429e-07  3.5219824062999469e-07  -2.3725947342904705e-08  4.5439127815796726e-07  -8.9144397710050080e-07  3.0809528568474163e-08  1.8917193920177748e-08  -3.3621160500869874e-05  -1.4197480548387086e-07  -3.1782523265712022e-07  -2.0619165309157028e-07  -8.3678139040953166e-07  2.2846837860453372e-06  2.6689634619165584e-06  5.8458486475069483e-07  1.0196672216480670e-06  2.5641420025546291e-08  7.8500994935197394e-07  9.5269037019085379e-07  8.2584226909817357e-07  -4.5524813831929758e-09  1.7762194427208089e-07  -1.4206212599300065e-07  8.7492952308589065e-07  -5.4302735508241320e-08  -9.6489586094071869e-07  -8.9165693014856432e-08  -5.1553623303740287e-07  4.9460444234025262e-07  5.0692747993490829e-07  7.8665752832760948e-07  -2.0765302800632552e-07  2.2842897610828309e-08  -3.3718782287878022e-07  -2.6273082760969792e-07  2.5723224598234940e-07  -9.0425402754549881e-07  -2.0475028703146093e-07  3.2841473437533715e-08  -1.8102818827282083e-07  1.3189047207853979e-06  6.0056725277957145e-07  9.2706749521492447e-07  2.1435714234057843e-07  6.1562665375100069e-07  -1.7808914652899970e-08  4.5271016128770049e-07  3.8396728871526048e-07  -8.2813252713948324e-08  1.0703278014964801e-04  -1.5783040652188762e-07  1.2305314847486037e-07  -1.1686010465827384e-05  -3.0007881468954289e-04  4.9115389763823409e-05  -3.1378119167921114e-04  -3.0163125348339005e-04  -3.3736428927772048e-05  -3.0586744600280958e-07  -1.7610330370125414e-07  -2.1244321513078319e-05  -3.1036851658884662e-04  6.2490647779567070e-07  -2.8135604773038211e-04  -3.0026285905486005e-04  5.5708472394628752e-07  -3.4811154854738368e-07  3.2909164660039827e-07  -4.8935075862162930e-08  6.3326003093272150e-08  -4.2278419633435859e-07  3.2514298252271655e-07  -1.9399477822974252e-07  -1.5775112159264717e-10  5.1951996155061975e-07  -1.0679913814594575e-07  2.9562051851553810e-07  2.8372973087992306e-07  5.2799018409510807e-07  9.9228072069846798e-07  -8.6715997412434195e-08  -2.9799051365411597e-09  1.9590855571727959e-08  -2.6198227024598785e-05  -1.5862749468580951e-05  -3.4788108816506370e-06  -1.1481899252295473e-05  -3.5768694722283709e-06  -4.0631048575012176e-06  -1.1333521492224727e-05  5.1899882609981278e-08  6.6865639674485989e-09  -1.6344782805551447e-05  -2.8294695121856614e-05  -3.2613091809032968e-07  -1.5282883418560554e-07  2.1974066914251091e-07  2.5346430133906870e-07  2.2217756245292685e-07  5.8773480021731914e-07  2.5844996179521496e-08  1.2794716141352279e-06  1.4846601379708619e-07  -1.7366437058272932e-07  -1.4821262120706624e-07  4.6036459770047033e-07  -1.3186044584752064e-05  -2.2967932679433695e-04  1.0959271823021001e-06  -3.1369438871583800e-06  9.0866469207660932e-05  -2.3950708389262355e-07  -7.8851077613840399e-07  6.7359822530305348e-07  5.1637090310026472e-07  -5.5096100669049725e-05  5.0592079163325416e-04  1.0213135241878790e-07  -5.7364143447351252e-08  6.8017923655659133e-08  9.7282001176660011e-08  7.4730251566174877e-07  -4.1072005473354414e-07  6.0673225338623204e-07  -9.8182926055655985e-07  -1.7347207127841582e-06  -1.0414392696774583e-07  2.5755196674958844e-07  2.1159395160488517e-07  -4.7233679678596286e-07  -4.5044045949908216e-07  -6.4437651750894313e-08  2.9182522507167670e-07  5.3149877431972435e-07  -1.4729100924127448e-06  -2.8680219724333385e-07  1.5593085863838992e-07  2.7821943120581938e-07  -2.4035704098725623e-08  -3.1318176729384966e-07  2.3786140972417862e-08  8.3255002578801641e-08  1.1071518278669476e-06  -6.1565330266695861e-07  -1.5037753453982234e-06  -2.4577740083787082e-07  8.8417601485257982e-09  7.5978307861754587e-08  1.6884510572855920e-07  -3.9688438356816336e-06  -3.8647038353396027e-06  -2.7353407627684373e-06  5.3590164081090918e-05  8.7673719733437880e-07  -2.7968802863832366e-05  -4.0311862485099771e-06  3.2558228222687966e-04  2.5864058892622688e-07  -2.6733335458506230e-06  -8.3496154163346660e-07  -2.3519867401070631e-06  3.8223971871585232e-07  -1.2387344984574468e-04  -1.3457210243363190e-04  -2.1084830075366558e-07  5.4107396762940732e-07  -3.0400744330689922e-07  -2.4358903514930609e-07  9.6279535024136409e-08  5.1731641281731562e-03  -1.8897394597947344e-05  5.1920294390030552e-07  -1.4418248472862867e-07  -7.4449643284847476e-08  -6.6700604584195354e-07  1.9163802513537720e-07  -1.0091996948274603e-06  2.1009013285260891e-07  4.7191072407990800e-07  2.0132614790318161e-07  -7.9102942725077908e-07  -3.3176111347388430e-07  -2.6538905507298980e-08  -1.8228394831693833e-07  -2.9799633430686914e-06  -3.5784583622527234e-05  3.0898787825053573e-08  1.4462136794909919e-07  2.1074637474440808e-07  4.2481646030088329e-07  7.0905268299004218e-07  -5.0516407922376470e-07  -5.5548343612493605e-07  -7.9054792121950210e-07  -1.0004001629200478e-07  9.6789992543746491e-07  -2.2387188969615907e-07  1.9100979022085118e-07  -1.6569538802415233e-07  5.6381846709195281e-07  -9.1359044842462376e-08  2.2001500853414621e-07  -5.0965980662529598e-07  -2.0106654405367642e-04  -1.6847589786041610e-04  -7.5651614992898681e-04  -2.1287224049468538e-04  -6.5632192024521738e-07  -2.5531321200399618e-07  1.9039804262438299e-04  -4.2205285863850856e-07  -2.3363290615958811e-09  -5.9170283280113299e-05  -1.0746554472656565e-06  -3.8707485126155733e-05  -6.6497178262934348e-07  -1.2890220844405401e-05  -4.6655683114973182e-07  -6.7337131830428019e-07  5.1754194533713524e-07  4.5889171038596481e-07  -5.2770746137514211e-07  1.1084359242602594e-07  3.9581556254418595e-07  -1.6583365880067386e-07  2.7688573487931027e-07  4.4738445580522583e-03  1.1730317418257701e-07  8.5465489237287693e-07  1.5697315115413594e-07  3.9330776153731492e-07  3.2351066184222533e-07  -2.8859092639315663e-07  -9.2458244378438285e-08  2.9994982590709874e-07  1.1391628439756985e-07  -5.0340821427594074e-07  6.3026006353777730e-07  -3.1965516610134191e-07  -3.0876276123794970e-08  1.4805609288801907e-07  9.0191073197308210e-07  4.7078015405586014e-07  4.7061310856259807e-07  2.8362513714312437e-07  -3.8662187664156957e-07  -4.7988143120579220e-07  6.4573971490253545e-08  -7.7650186389985115e-07  -5.3461179937236083e-07  -3.5133578381916585e-07  1.6968143948364478e-07  3.6759075404015008e-08  4.1447947215523184e-07  -3.3631385965177504e-06  1.8004706418460315e-07  1.7559194069094035e-04  -1.1149431548693622e-06  -5.8421604069725266e-05  4.6340912876523498e-07  -8.4982405126989995e-07  -3.0530435098850589e-04  -1.1939509769670294e-05  -1.4200683287064687e-05  -2.1900319256972947e-05  -4.3587091737841624e-06  -1.5105164677955935e-05  -5.1153477409255564e-05  3.5932646564848400e-04  -4.1185241468227535e-07  -1.3008875273851391e-07  6.8112030075660707e-07  -9.0821817774664103e-07  -3.7708013349348409e-07  1.0342218608496144e-06  -9.2630948194589187e-07  4.4424449869282697e-07  6.1414075657001739e-07  -3.0644821526765286e-07  -2.1105286987549256e-08  6.9942838448938448e-07  -4.6470256171267171e-07  -6.9245657115037834e-06  -7.9255532872202485e-07  -5.3789571878747446e-07  -5.5953203315075888e-08  -1.8826735178550422e-05  -3.5021868892671206e-06  4.6642557860296508e-08  3.2070931876098142e-07  -2.9056643554315810e-07  1.0057501193938042e-06  2.1451210125275189e-08  -2.5373037319772609e-07  7.0620086980484053e-07  4.4581144791025025e-08  1.1984548456566526e-07  -2.5897834495346295e-05  -6.8101100878087601e-07  8.4330735757102328e-08  1.7832414636107141e-07  9.4012909624640971e-07  5.1500154952051683e-07  8.9777971739433557e-07  3.3547843527347906e-07  1.5316907237197000e-07  -1.0917582227835150e-07  -1.1308234402237175e-07  7.0958524168805057e-07  -1.0164979432298684e-03  3.0175195942884234e-03  -8.0735857525560721e-06  -4.5395297669975855e-06  -1.0847708786431219e-07  2.9408191170950131e-07  -1.6173089204150346e-07  -6.7150678690684713e-07  -3.5053426368852602e-06  -7.8345947284590263e-07  -1.5458101484835534e-06  -1.2676162957778908e-06  -4.6985852621937888e-06  -2.7749982443268670e-05  1.0863338446210608e-07  3.3437792483319821e-04  4.1040506419691057e-07  4.8607122172110614e-07  -8.3760291182366380e-06  -2.8372211832607754e-04  -7.0839580587844981e-04  -4.3047975642355174e-06  -7.5268914190618234e-06  -5.5608955547357325e-05  -1.7436895894832463e-04  -1.1128032234529401e-03  -3.0201815197089226e-07  3.9379500095010845e-07  1.3214137847812282e-07  5.5928340947325175e-07  3.2973299692998581e-03  -4.4450968943889177e-06  1.6760050784090708e-07  4.6231985601214908e-07  1.7386142882624818e-07  -2.9427530255356654e-07  1.9698373447727326e-07  4.7239501628831831e-07  2.9742203481122193e-08  -5.3206837211034446e-07  -4.8460845709948588e-07  2.7390731821775524e-07  3.4066721805432585e-07  -1.6415094315805482e-06  5.4647292025184206e-07  1.6004571704524827e-07  -4.3707697657462528e-07  -1.6763466123686503e-07  -1.8145087231962438e-07  -5.1071713854338186e-07  -1.3613163147487897e-05  -3.8782308043971457e-06  -3.2723804165633703e-07  -3.2243678661238948e-07  -2.6001531751863385e-07  -2.7923820930642864e-07  -1.0919878803718786e-06  4.2443452343715661e-07  -7.2684002891517072e-07  4.2916344618742141e-07  -1.7784472262618632e-07  -5.5140662196088149e-07  7.3984374238990905e-08  -2.5636815290526824e-07  -2.7722450858757377e-07  -3.3891332744273741e-07  5.2156038368866900e-07  7.0489802399382317e-07  3.9501893182065019e-07  2.5723507106145749e-07  4.1986036246888890e-07  -3.5904296150241850e-07  1.2450503562807832e-06  -1.0142279519205573e-07  -8.1816795923762178e-06  -1.1574412664918368e-06  -1.4876488011365733e-06  -2.3919072467631520e-07  -7.6165632900170047e-09  -5.3590581439340863e-06  2.0311259213793882e-07  -2.0452868800550592e-05  -7.0621435857403438e-06  -1.4906443921316128e-05  3.4215586005666095e-04  -3.6777030249871839e-07  -2.8255662749799900e-07  -2.4074045078407337e-07  9.5057815844581681e-08  4.1494485270364182e-08  -4.1023797206296970e-07  5.6391460595728641e-07  6.9666923361188901e-07  5.4038173556949065e-05  -8.3051023007056860e-05  -2.1174622149457096e-05  9.7621956624877402e-06  8.2647422843353629e-07  2.8088833148834852e-06  -8.2822503985977397e-07  4.9442271824354501e-06  2.0287051264005472e-05  -4.9595595299122932e-05  -4.2429387551672524e-03  -1.2864277509589675e-05  8.6201489049072740e-08  3.7281197870254839e-07  5.3717127236127627e-05  7.6551360553924329e-05  2.9842910397856725e-04  1.8248987770535114e-07  3.5981441373189257e-04  -7.9224632151330028e-07  -1.5549026880563984e-07  -4.6804217813635075e-03  1.3596842385962535e-07  -3.3632373177659803e-08  -6.0009751250812761e-07  -6.3780884706897523e-07  -8.4745726261794837e-08  -1.7552822859645830e-07  5.2398001299404642e-07  9.4880156526655183e-07  -1.9952531135426060e-07  1.3914594883151058e-07  -1.0567566217169493e-07  -7.7477528625144997e-06  -2.2637886814030210e-06  6.0229257417780513e-07  -1.8366947787342805e-08  -2.3174159862112618e-04  -9.2652932503720732e-05  3.4731926304349704e-07  -2.4436739801440114e-07  4.6974149684083986e-07  -3.6036704587503169e-07  7.9410875692935338e-07  -6.1112198226872679e-07  2.7840604271722097e-07  -8.3640423891306691e-05  -4.0097941936994571e-07  1.7612999996374644e-07  -8.0882515724520244e-08  3.8981936793634542e-04  -1.6424167597470191e-05  -1.1437963404689486e-07  1.6931046077956900e-07  -1.6078253088839326e-07  8.1274818135615288e-09  4.6999056234676625e-07  2.6767180814115495e-08  -2.2241763712111002e-07  -4.1724642161863723e-07  3.1880623568199661e-07  -1.7155192910722318e-07  -1.8061208899576136e-04  -1.0644248370465711e-06  -8.2289358485592371e-06  -9.8153702507475648e-08  -6.7698533583874324e-07  -6.3609392293390557e-06  5.5944671517701670e-07  6.0414692483616533e-07  1.6383343139528002e-06  8.1918833080664339e-07  4.4754284889665153e-04  -5.0490638060074402e-06  -4.9221047921348494e-07  -4.1887650288239371e-06  -1.7711397294410268e-05  -9.9724020199160733e-08  -1.6092258273477473e-07  -2.5314032489982656e-07  -1.2648694861880498e-07  -2.8967119608566285e-07  -2.6446769163186040e-08  2.4243749645946975e-07  -5.3243887759577595e-07  -7.5977344398249095e-06  -9.0831965849921873e-06  -1.1919418556163908e-07  -4.3530504428319792e-07  2.0679428152423841e-07  -2.5505228444766324e-07  -6.7079889627385701e-04  -2.2175673508673844e-05  1.4419829115576809e-07  -3.1907015560054768e-06  -1.2896084805128203e-05  8.7715455875542226e-07  -2.9415684798707955e-07  -3.0067620608773727e-05  -5.1640396748752935e-04  -6.0704442518853190e-04  -4.7688327658223785e-04  4.7782787814848299e-07  -5.4400318300204841e-08  6.6862519173151295e-07  7.8715011707543403e-08  -3.0101331812810655e-08  7.6021120023982164e-08  -6.1656211436188345e-07  1.2918839103218436e-07  1.6001516371418531e-07  9.2547411541040029e-08  -6.1413807074796366e-07  1.6946219393766206e-07  1.1072325152870140e-06  4.5085279472053261e-07  2.6266505749414369e-07  -1.6824145937745904e-05  -1.1789309101860366e-05  1.5362276982489339e-07  1.5122766409547126e-07  -4.0646621424085016e-07  3.9793049458859092e-07  4.9858769807410208e-07  1.8078258084763971e-07  -1.0225912678206230e-06  -8.9985001152285331e-07  2.2320965824524563e-07  4.5235538081834895e-07  -4.6834274383197542e-07  -4.8293642886488075e-07  3.4992251514502212e-07  -4.4077498967009003e-09  -1.8152683395776717e-05  -5.7795755817819374e-05  1.1927471848238189e-03  -2.0904450888829984e-06  -7.0513692994875510e-07  -5.1568722574629196e-07  -3.2636235858456422e-07  -2.2066682166048738e-05  -1.1123208422178435e-06  5.2521873098727041e-07  -2.0410057520932004e-04  -6.1295151957442291e-06  -1.6479979557898862e-07  -7.0301982308923581e-09  5.2420959190135630e-07  -8.3634917857565633e-07  6.4932927007136089e-07  6.5984838125272528e-07  5.4027768235097400e-07  4.7080570827891674e-07  2.9184456184824285e-07  8.7559121443617464e-08  6.1232794702086242e-07  -5.6484983004088702e-07  3.8109942361033580e-07  -9.3679813633779927e-07  4.4919075897244217e-07  1.0392200881683774e-06  -1.1560970694447819e-07  3.5530222571567040e-07  4.0654421295600185e-07  1.5489313714350989e-06  -2.2650376403740277e-07  -1.4059373314903626e-06  -1.0523488559096384e-06  5.7527867081894919e-07  2.1726678898989835e-07  -2.1548770861925539e-08  -5.9873423229750324e-08  3.7041258729492333e-07  -4.53778985622665