<?xml version="1.0"?>
<VTKFile type="UnstructuredGrid"  version="0.1"  >
<UnstructuredGrid>
<Piece  NumberOfPoints="16808" NumberOfCells="31534">
<Points>
<DataArray  type="Float64"  NumberOfComponents="3"  format="ascii">0 12.7 0  0 0 0  0.2 0 0  0.2 12.7 0  0.2 6.35 0  0 6.35 0  0 3.175 0  0.2 3.175 0  0 9.524999999999999 0  0.2 9.524999999999999 0  0 11.1125 0  0.2 11.1125 0  0.2 1.5875 0  0 1.5875 0  0.2 4.762499999999999 0  0 4.762499999999999 0  0.2 7.937499999999999 0  0 7.937499999999999 0  0.2 10.31875 0  0 10.31875 0  0.2 11.90625 0  0 11.90625 0  0 5.556249999999999 0  0.2 5.556249999999999 0  0 0.79375 0  0.2 0.79375 0  0 2.38125 0  0.2 2.38125 0  0.2 7.143749999999999 0  0 7.143749999999999 0  0 8.731249999999999 0  0.2 8.731249999999999 0  0 3.96875 0  0.2 3.96875 0  0.2 11.509375 0  0 11.509375 0  0 10.715625 0  0.2 10.715625 0  0 7.540624999999999 0  0.2 7.540624999999999 0  0.2 2.778125 0  0 2.778125 0  0.2 5.159374999999999 0  0 5.159374999999999 0  0.2 5.953125 0  0 5.953125 0  0.2 8.334375 0  0 8.334375 0  0.2 0.396875 0  0 0.396875 0  0 1.190625 0  0.2 1.190625 0  0.2 3.571874999999999 0  0 3.571874999999999 0  0.2 4.365625 0  0 4.365625 0  0.2 1.984375 0  0 1.984375 0  0.2 6.746874999999999 0  0 6.746874999999999 0  0.2 9.128124999999999 0  0 9.128124999999999 0  0.2 9.921874999999998 0  0 9.921874999999998 0  0 12.303125 0  0.2 12.303125 0  0 11.7078125 0  0.2 11.7078125 0  0.2 10.5171875 0  0 10.5171875 0  0.2 8.135937499999999 0  0 8.135937499999999 0  0.2 5.754687499999999 0  0 5.754687499999999 0  0 5.3578125 0  0.2 5.3578125 0  0 7.739062499999999 0  0.2 7.739062499999999 0  0 3.770312499999999 0  0.2 3.770312499999999 0  0.2 1.3890625 0  0 1.3890625 0  0.2 2.579687499999999 0  0 2.579687499999999 0  0 2.9765625 0  0.2 2.9765625 0  0 4.1671875 0  0.2 4.1671875 0  0 0.1984375 0  0.2 0.1984375 0  0 0.5953124999999999 0  0.2 0.5953124999999999 0  0.2 1.7859375 0  0 1.7859375 0  0 2.1828125 0  0.2 2.1828125 0  0.2 0.9921874999999999 0  0 0.9921874999999999 0  0.2 12.1046875 0  0 12.1046875 0  0.2 12.5015625 0  0 12.5015625 0  0 9.723437499999999 0  0.2 9.723437499999999 0  0 8.9296875 0  0.2 8.9296875 0  0 9.326562499999998 0  0.2 9.326562499999998 0  0 6.548437499999999 0  0.2 6.548437499999999 0  0 6.945312499999999 0  0.2 6.945312499999999 0  0 3.3734375 0  0.2 3.3734375 0  0 8.532812499999999 0  0.2 8.532812499999999 0  0 6.1515625 0  0.2 6.1515625 0  0 4.564062499999999 0  0.2 4.564062499999999 0  0 4.960937499999999 0  0.2 4.960937499999999 0  0.2 7.342187499999999 0  0 7.342187499999999 0  0 10.1203125 0  0.2 10.1203125 0  0.2 10.9140625 0  0 10.9140625 0  0 11.3109375 0  0.2 11.3109375 0  0.1 10.81484375 0  0.1 12.00546875 0  0.1 5.85390625 0  0.1 8.235156249999999 0  0.1 8.632031249999999 0  0.1 8.83046875 0  0.1 9.425781249999998 0  0.1 9.624218749999999 0  0.1 10.21953125 0  0.1 10.41796875 0  0.1 10.61640625 0  0.1 11.60859375 0  0.1 11.80703125 0  0.1 11.41015625 0  0.1 5.258593749999999 0  0.1 7.639843749999999 0  0.1 12.7 0  0.1 4.067968749999999 0  0.1 2.87734375 0  0.09999999999999999 2.67890625 0  0.1 3.86953125 0  0.1 1.88515625 0  0.1 0.6945312499999999 0  0.1 1.28984375 0  0.1 1.48828125 0  0.1 2.08359375 0  0.1 0 0  0.1 0.29765625 0  0.1 0.8929687499999999 0  0.09999999999999999 1.09140625 0  0.1 0.4960937499999999 0  0.1 7.242968749999999 0  0.1 4.861718749999999 0  0.1 5.060156249999999 0  0.1 4.464843749999999 0  0.1 4.663281249999999 0  0.09999999999999999 3.47265625 0  0.1 6.846093749999999 0  0.1 7.044531249999999 0  0.1 6.449218749999999 0  0.1 6.647656249999999 0  0.09999999999999999 6.250781249999999 0  0.1 6.05234375 0  0.09999999999999996 1.68671875 0  0.1 4.266406249999999 0  0.1 3.07578125 0  0.09999999999999999 2.28203125 0  0.09999999999999996 2.48046875 0  0.1 3.671093749999999 0  0.1 3.27421875 0  0.09999999999999999 5.457031249999999 0  0.09999999999999996 5.65546875 0  0.09999999999999999 7.441406249999999 0  0.09999999999999999 7.838281249999999 0  0.09999999999999996 8.036718749999999 0  0.1 11.21171875 0  0.1 11.01328125 0  0.1 10.02109375 0  0.1 8.43359375 0  0.1 9.227343749999999 0  0.1 9.02890625 0  0.1 9.82265625 0  0.1 12.40234375 0  0.1 12.20390625 0  0.1 12.5755843996063 0  0 0.09921874999999999 0  0.2 0.09921874999999999 0  0.09999999999999999 0.148828125 0  0.09922180175781284 7.143749999999999 0  0 7.639843749999999 0  0.2 7.639843749999999 0  0 5.258593749999999 0  0.1007781982421872 5.159374999999999 0  0.2 5.258593749999999 0  0.09922180175781285 11.90625 0  0.09922180175781285 11.509375 0  0.1007781982421872 11.7078125 0  0 11.41015625 0  0 11.60859375 0  0.2 11.41015625 0  0.2 11.60859375 0  0.09922180175781285 10.715625 0  0.1007781982421872 10.5171875 0  0.1007781982421872 10.31875 0  0 10.41796875 0  0.2 10.41796875 0  0 10.21953125 0  0.2 10.21953125 0  0.1007781982421872 9.524999999999999 0  0 9.624218749999999 0  0.2 9.624218749999999 0  0 9.425781249999998 0  0.2 9.425781249999998 0  0.1007781982421872 5.953125 0  0.09922180175781285 8.135937499999999 0  0.1007781982421872 8.731249999999999 0  0 8.83046875 0  0.2 8.83046875 0  0 8.632031249999999 0  0.2 8.632031249999999 0  0.2 8.235156249999999 0  0 8.235156249999999 0  0.2 5.85390625 0  0 5.85390625 0  0 11.80703125 0  0 12.00546875 0  0.2 11.80703125 0  0.2 12.00546875 0  0 10.61640625 0  0 10.81484375 0  0.2 10.61640625 0  0.2 10.81484375 0  0.09922180175781287 5.556249999999999 0  0.1007781982421872 11.1125 0  0.09922180175781285 8.334375 0  0.09922180175781285 8.9296875 0  0.09922180175781285 9.723437499999999 0  0.2 12.60078125 0  0 12.60078125 0  0.1007781982421874 1.984375 0  0.1007781982421874 1.3890625 0  0 2.67890625 0  0 2.87734375 0  0.1007781982421874 2.5796875 0  0.2 2.67890625 0  0.2 2.87734375 0  0 3.86953125 0  0 4.067968749999999 0  0.1007781982421874 3.7703125 0  0.2 3.86953125 0  0.2 4.067968749999999 0  0.09922180175781263 2.9765625 0  0 2.08359375 0  0.2 2.08359375 0  0.2 1.48828125 0  0 1.48828125 0  0 1.28984375 0  0.2 1.28984375 0  0 0.6945312499999999 0  0.2 0.6945312499999999 0  0.2 1.88515625 0  0 1.88515625 0  0.09922180175781251 0.9921874999999999 0  0.1007781982421875 0.5953124999999999 0  0 0.29765625 0  0.2 0.29765625 0  0.1007781982421875 0.396875 0  0 0.4960937499999999 0  0.2 0.4960937499999999 0  0.2 1.09140625 0  0 1.09140625 0  0.1007781982421876 0.7937499999999998 0  0 0.8929687499999999 0  0.2 0.8929687499999999 0  0.1007781982421876 7.937499999999998 0  0 8.036718749999999 0  0.2 8.036718749999999 0  0 7.83828125 0  0.2 7.83828125 0  0.1007781982421876 7.739062499999999 0  0.09922180175781239 7.540624999999999 0  0.2 7.441406249999998 0  0.09922180175781239 7.3421875 0  0 7.441406249999998 0  0 5.655468749999999 0  0.09922180175781239 5.754687499999999 0  0.2 5.655468749999999 0  0 5.45703125 0  0.2 5.45703125 0  0.1007781982421876 5.3578125 0  0.1007781982421876 3.175 0  0.09922180175781241 3.571874999999999 0  0 3.671093749999999 0  0.2 3.671093749999999 0  0.1007781982421876 2.38125 0  0 2.48046875 0  0.2 2.48046875 0  0 2.28203125 0  0.2 2.28203125 0  0.1007781982421876 2.1828125 0  0 3.07578125 0  0.09922180175781242 1.5875 0  0 1.68671875 0  0.09922180175781239 1.7859375 0  0.2 1.68671875 0  0 6.05234375 0  0 6.250781249999999 0  0 6.44921875 0  0.2 6.05234375 0  0.2 6.250781249999999 0  0.1007781982421876 6.349999999999999 0  0.2 6.44921875 0  0.1007781982421876 6.548437499999999 0  0.09922180175781242 6.746874999999999 0  0.1007781982421876 6.945312499999998 0  0 6.647656249999999 0  0 6.84609375 0  0.2 6.647656249999999 0  0.2 6.84609375 0  0 3.27421875 0  0 3.47265625 0  0.2 3.07578125 0  0.2 3.27421875 0  0.1007781982421876 3.3734375 0  0.2 3.47265625 0  0.09922180175781244 4.167187499999999 0  0 4.266406249999999 0  0 4.46484375 0  0.2 4.266406249999999 0  0.1007781982421876 4.365625 0  0.2 4.46484375 0  0 5.060156249999999 0  0.2 5.060156249999999 0  0.1007781982421876 4.564062499999999 0  0.09922180175781242 4.762499999999999 0  0.1007781982421876 4.960937499999998 0  0 4.663281249999999 0  0 4.86171875 0  0.2 4.663281249999999 0  0.2 4.86171875 0  0.2 7.044531249999999 0  0.2 7.242968749999999 0  0 7.044531249999999 0  0 7.242968749999999 0  0.09922180175781239 1.190625 0  0.09922180175781241 3.96875 0  0.09922180175781241 2.778125 0  0.09922180175781195 12.303125 0  0.100778198242188 12.1046875 0  0 12.20390625 0  0 12.40234375 0  0.2 12.20390625 0  0.2 12.40234375 0  0 9.028906249999999 0  0 9.227343749999999 0  0.09922180175781198 9.128125000000001 0  0.09922180175781198 9.3265625 0  0.2 9.028906249999999 0  0.2 9.227343749999999 0  0 8.43359375 0  0.09922180175781198 8.5328125 0  0.2 8.43359375 0  0 9.822656249999998 0  0 10.02109375 0  0.09922180175781198 9.921875 0  0.09922180175781198 10.1203125 0  0.2 9.822656249999998 0  0.2 10.02109375 0  0.09922180175781196 10.9140625 0  0 11.01328125 0  0 11.21171875 0  0.09922180175781198 11.3109375 0  0.2 11.01328125 0  0.2 11.21171875 0  0.09922180175781198 6.1515625 0  0.08672180175781248 12.48896407480315 0  0.07461090087890626 0.2232421875 0  0.1253890991210938 0.0744140625 0  0.05038909912109379 4.3164077878937 0  0.1496109008789064 5.605467212106299 0  0.1496109008789064 8.0867202878937 0  0.05038909912109358 5.1101577878937 0  0.05038909912109338 4.514845287893699 0  0.05038909912109338 6.896095287893699 0  0.05038909912109338 6.499220287893699 0  0.05000000000000002 6.002734375 0  0.05000000000000002 3.819921874999999 0  0.1496109008789064 5.5070327878937 0  0.1499999999999996 7.391796874999998 0  0.05038909912109338 4.911720287893699 0  0.1496109008789069 9.971092212106297 0  0.1496109008789069 9.177342212106298 0  0.05038909912109314 12.0554702878937 0  0.149610900878906 12.2539077878937 0  0.05 12.7 0  0.1374999999999996 12.63779219980315 0  0.1496109008789064 9.772654712106299 0  0.1496109008789064 9.6742202878937 0  0.1496109008789064 8.978904712106299 0  0.1496109008789064 8.880470287893701 0  0.1496109008789064 8.383592212106299 0  0.1496109008789064 
[...]
<PointData  Scalars="sigma (Pa)"> 
<DataArray  type="Float64"  Name="sigma (Pa)"  format="ascii">4.7704774113206984e-02  4.6313455356031312e-02  -4.2100082826952788e-02  -4.6015582477582403e-02  -1.9588204152374801e-05  1.6581473923335865e-08  6.4922906495933669e-08  -5.9107416491462631e-07  5.2865230920436705e-07  3.0151498947535483e-07  -8.7164188290795880e-07  -3.4468048766296069e-06  3.4725234443568772e-07  -4.1324630676407234e-07  1.0100303180891463e-07  9.0148492874475973e-08  -5.1854067768057083e-06  -2.2623456639621058e-06  -6.2393219356120466e-08  -5.6597480261967825e-09  1.0286512389844943e-06  8.7047736937651656e-07  3.1840510871205157e-07  -2.4576166993292873e-04  -2.7819155515419479e-07  3.3975895933892790e-07  6.8490189284734556e-08  -5.3325732538432122e-07  -1.2662905244288213e-04  2.4039222973381602e-07  -1.0950200671473445e-06  -3.0896692570930914e-08  -1.7635066459180977e-06  -2.8592620094634576e-07  5.3716030536866921e-07  1.9789760603657526e-06  7.6447026777280735e-08  -1.4177388942509055e-08  1.1068568045397414e-05  -9.2249074280994375e-04  -2.4600296475079149e-07  -1.2859623630654274e-06  8.1735389197425373e-04  -1.9061505330754264e-05  -5.7981924746982913e-05  5.8333566238312890e-08  3.4169991497142117e-07  -3.2110546624161028e-07  8.6047788516381569e-08  -1.6761312698834275e-07  -2.2805113281223690e-07  -2.9849015639354337e-07  -5.5824436368051960e-08  6.3830233447558665e-07  -1.8469161377240923e-07  -8.0856235357598515e-08  -6.2673035106168311e-07  -7.6829193898229410e-08  3.4257021157066415e-05  5.9846768212455292e-10  1.9208837825065738e-08  3.1075145538049332e-07  4.5557078541452531e-08  5.9554350833114935e-07  4.4064525062739587e-07  2.0671338688572034e-06  4.9454090758238580e-07  -5.0375706029125655e-07  3.6155077537916160e-07  -1.2687953178642719e-06  -1.0135076907971764e-06  -3.1380842855429656e-06  -1.1893988916600529e-04  4.5037337466364866e-07  1.8650681920481692e-06  -8.6783311183947348e-04  -4.5891685552719412e-06  2.9653097325069790e-04  -3.0281461123346636e-07  6.4239340604466764e-07  -1.5687557227887995e-07  1.4240220070464832e-06  1.1307660590524693e-06  3.3154265542678000e-07  9.4052794992290239e-08  -1.0352155356695285e-07  -2.2207577418158910e-07  9.4555965768406929e-07  7.1550815069711944e-07  1.5219582676804899e-06  -2.6978846485089899e-07  2.3151975425681383e-07  -4.8579191878131704e-07  -1.1174262190836110e-07  9.5890513837415589e-07  -4.8022187596990484e-07  1.7751937461699192e-08  5.3315677031508442e-07  -3.6820889595782246e-08  2.2022219751172145e-07  -2.8691247912565232e-07  5.7809358251740482e-07  -8.4924982346869258e-08  5.1395111261576127e-07  5.5594815585530330e-07  3.7549834421499493e-07  2.6472378075288947e-07  -7.8669665899894436e-07  -5.6278835340929869e-08  -2.0063662407731108e-05  -1.7331690363075704e-07  -6.1992413876823003e-05  4.3924416871710613e-07  1.3984825363082878e-07  2.3318473100359357e-07  -5.0412924556833260e-07  1.1680557204362204e-07  2.3674100857204208e-05  -3.0273552792378789e-07  -1.5832432242875038e-06  -1.8733485572371370e-06  -5.7653460793754165e-06  -2.6103682395469622e-04  -4.6448105196034286e-07  2.9052439105749562e-07  -8.2687428818441314e-07  3.2497882400012725e-08  1.8471942624962302e-08  -1.6708986060135661e-06  4.3008697282434113e-07  -6.2386601017377275e-07  1.8385273900324946e-07  -2.2131314756757068e-05  -8.7264442419144662e-07  2.7865081480023640e-07  4.3985268052944148e-07  -9.8996366330444869e-07  2.5079753609445249e-08  -4.9978713338464071e-07  9.4599466245558677e-07  2.4008272501033094e-08  -5.6815615187064493e-07  2.1407759052328749e-07  -1.0723552892837302e-07  -1.0403590055477429e-03  -1.1352914655061556e-03  1.0378160393517832e-04  -1.0781127193339188e-06  2.8920937216561329e-07  -7.1136310163697371e-07  -7.6455757831466955e-08  1.2148931456632555e-07  -9.8942256001781194e-07  7.7631176750333588e-07  -5.3766444691416088e-07  -1.8425207439716536e-07  2.8051711972882184e-04  1.2608954200642231e-06  -6.0114745825297618e-07  1.0331349249560996e-06  -2.5353077497409554e-07  -5.3243303322047938e-05  -2.0422511266521065e-05  1.8128118760291122e-03  1.1665268245089769e-06  4.9128865859117680e-07  -1.2876600191128552e-06  -1.3332819369350537e-05  -2.4102472744509030e-05  -5.0082561355274150e-06  -8.3943995500584892e-06  -7.7959017970023249e-06  -1.2421540337403178e-05  -1.0346567054109251e-06  2.7279169180735182e-08  -5.6671115598526706e-07  1.0122601001633991e-07  9.4126352432044863e-08  4.6313057672523534e-07  1.5485634307845331e-06  -1.5246222044774214e-04  -4.5837060840927811e-05  -1.6268239858705408e-04  1.9452763739282665e-03  -1.8823690088221209e-05  4.3988543860723345e-07  -7.7389073861653737e-07  -7.4438907836438849e-07  2.0034126002504120e-07  -4.9616750746505877e-07  3.1261246882415051e-07  7.9118081288497473e-07  3.2032269951942631e-06  -9.9521510988592235e-08  -6.2217317384161691e-06  1.0225152012401350e-05  3.6647235292255555e-06  -4.5163527894454803e-06  -3.5349227945510499e-05  2.2810549168939178e-05  -1.5101297990404393e-03  -5.2050065868242335e-06  8.9154916482821580e-05  -1.3813424682207725e-03  -5.8630363714002192e-07  2.6688326576040975e-07  -2.6034090183039971e-07  -1.0656212109831741e-06  1.8916004212665274e-07  2.2518934717896086e-07  1.0001242754540553e-07  -1.3148354771033672e-06  3.2199612395583498e-07  -8.5032882244728547e-07  1.4812435240434333e-06  -3.2205634412893344e-07  -1.3011239643160731e-06  -4.8284012146830547e-07  1.4005784471193679e-06  -1.1177891456305502e-07  1.1408318305203291e-07  7.9075778341797262e-07  1.4715726984801884e-07  -1.6693809866202066e-05  -3.0645113092539789e-06  1.6250837627921422e-07  8.6897586330178552e-07  -8.4042397066043101e-07  2.0101882672677689e-07  -2.3449335913330402e-07  -5.0604733484732589e-07  -5.7932858976542350e-07  -8.1895439334354393e-05  4.3997745777247990e-08  -1.9811620565237012e-06  -3.0362510816194663e-07  5.6110152893321955e-07  -3.7798801799900089e-08  7.2390965725677619e-07  -1.4201964738477320e-06  4.9083769766575664e-08  3.0137479979718909e-08  -5.3563265949655841e-05  -2.2618599234746896e-07  -5.0633998080907158e-07  -3.2849294253769766e-07  -1.3331107675817503e-06  3.6398245461357584e-06  4.2520364456816947e-06  9.3132673604229276e-07  1.6244741575614969e-06  4.0850421048127694e-08  1.2506318814739159e-06  1.5177705639725119e-06  1.3156837334488124e-06  -7.2528692897081710e-09  2.8297695623537799e-07  -2.2632559833546508e-07  1.3938869279298734e-06  -8.6512439449011376e-08  -1.5372161298007090e-06  -1.4205371917202135e-07  -8.2132246398059378e-07  7.8797489710133014e-07  8.0760722933626083e-07  1.2532568494306709e-06  -3.3082071105557540e-07  3.6391788098983467e-08  -5.3718790361870608e-07  -4.1856739250798629e-07  4.0980777127194681e-07  -1.4406046841161673e-06  -3.2619620586957926e-07  5.2321149400049969e-08  -2.8840352824709058e-07  2.1012018451758302e-06  9.5678861398507050e-07  1.4769497008370120e-06  3.4150126254073869e-07  9.8078032837690425e-07  -2.8372150080398967e-08  7.2123135447718310e-07  6.1171428221643612e-07  -1.3193315389137617e-07  1.7051836320431844e-04  -2.5144658775665691e-07  1.9604011790146572e-07  -1.8617467129241604e-05  -4.7806801251453092e-04  7.8247765723200177e-05  -4.9989783673688726e-04  -4.8054126772028102e-04  -5.3746905111920414e-05  -4.8728965025954732e-07  -2.8055813976530765e-07  -3.3845209502323284e-05  -4.9446096347623126e-04  9.9556533999072636e-07  -4.4823999584014658e-04  -4.7836122082109449e-04  8.8751498144594792e-07  -5.5459099676792357e-07  5.2428974996821751e-07  -7.7961105638998124e-08  1.0088703447476211e-07  -6.7355476692525244e-07  5.1799878647093994e-07  -3.0906092387875476e-07  -2.5172752234121616e-10  8.2766860214978852e-07  -1.7014588591556260e-07  4.7096535096591620e-07  4.5202138173944476e-07  8.4116309441500945e-07  1.5808436828016866e-06  -1.3815163021055308e-07  -4.7469830446505922e-09  3.1210948888093337e-08  -4.1737482083405649e-05  -2.5271604828090897e-05  -5.5422374386693209e-06  -1.8292288846102541e-05  -5.6984591657606091e-06  -6.4731010625900996e-06  -1.8055903600683304e-05  8.2682337860102206e-08  1.0652380600346184e-08  -2.6039552540556280e-05  -4.5077453582087548e-05  -5.1957297565210852e-07  -2.4347732247312882e-07  3.5007802275161563e-07  4.0380455354281418e-07  3.5396046855614794e-07  9.3634487169827508e-07  4.1174748196808988e-08  2.0383795867759729e-06  2.3652747795911713e-07  -2.7667227576081372e-07  -2.3612325235251096e-07  7.3342558389986863e-07  -2.1007235150175411e-05  -3.6591166675546151e-04  1.7459676895972640e-06  -4.9975953435875096e-06  1.4476314336800522e-04  -3.8156798495155257e-07  -1.2562101036285766e-06  1.0731373939194949e-06  8.2265153895191812e-07  -8.7775884744338738e-05  8.0600340716143512e-04  1.6271046570654340e-07  -9.1386746988597208e-08  1.0836220343831960e-07  1.5498429512772351e-07  1.1905585434793041e-06  -6.5433516698562766e-07  9.6661030103644759e-07  -1.5641929556472136e-06  -2.7636555520406669e-06  -1.6591598294114276e-07  4.1031672417348517e-07  3.3709942259328632e-07  -7.5249971480739923e-07  -7.1761494064832315e-07  -1.0265850650183710e-07  4.6491828223883431e-07  8.4675214529816071e-07  -2.3465537590078535e-06  -4.5691568645385096e-07  2.4841992783449019e-07  4.4324288927253824e-07  -3.8292522401068490e-08  -4.9894321179860833e-07  3.7894621673893389e-08  1.3263716620620733e-07  1.7638495033885150e-06  -9.8082276447446718e-07  -2.3957268413327832e-06  -3.9155817045981869e-07  1.4086093570877913e-08  1.2104406904539794e-07  2.6899400056781863e-07  -6.3229292462238315e-06  -6.1570200543867940e-06  -4.3577848760721153e-06  8.5376714227313120e-05  1.3967663828808168e-06  -4.4558260544200373e-05  -6.4222495907745115e-06  5.1869864498250149e-04  4.1205111735338206e-07  -4.2589993192276740e-06  -1.3302124004385467e-06  -3.7470483083326944e-06  6.0896175766796816e-07  -1.9734793387182469e-04  -2.1439240050258543e-04  -3.3591065445116033e-07  8.6200773367427026e-07  -4.8432776057111532e-07  -3.8807180734271604e-07  1.5338693820251812e-07  8.2415824432637997e-03  -3.0106223518748675e-05  8.2716408256445390e-07  -2.2970331352388035e-07  -1.1860879287114637e-07  -1.0626361487599985e-06  3.0530676038542230e-07  -1.6077980727195368e-06  3.3470339110262865e-07  7.5182057595771383e-07  3.2074105484293787e-07  -1.2602219948437250e-06  -5.2854220630278898e-07  -4.2280229370417489e-08  -2.9040411538256815e-07  -4.7475029369276276e-06  -5.7009905126798831e-05  4.9226742812228647e-08  2.3040228863001428e-07  3.3574863554850068e-07  6.7679277787542706e-07  1.1296216110951799e-06  -8.0479756834018566e-07  -8.8496426014612848e-07  -1.2594545038269415e-06  -1.5937785657591514e-07  1.5420013100637550e-06  -3.5665928195930050e-07  3.0430579543137233e-07  -2.6397618112669482e-07  8.9824261965954522e-07  -1.4554783816723720e-07  3.5051496715520084e-07  -8.1196017151961507e-07  -3.2032745515414286e-04  -2.6840594410839361e-04  -1.2052372714969459e-03  -3.3913559901749258e-04  -1.0456136877151865e-06  -4.0674950100459542e-07  3.0333102342159675e-04  -6.7239016827421816e-07  -3.7220462998839524e-09  -9.4266634718280466e-05  -1.7120784365372510e-06  -6.1666500626235293e-05  -1.0593934974035803e-06  -2.0535945144530961e-05  -7.4329097925358201e-07  -1.0727757247506914e-06  8.2451754685407361e-07  7.3107938101233464e-07  -8.4071261458094292e-07  1.7658950101457475e-07  6.3059019887351444e-07  -2.6419646759638583e-07  4.4111813999870700e-07  7.1274674164577669e-03  1.8688056442102887e-07  1.3615861586733463e-06  2.5008052633156398e-07  6.2659491808722444e-07  5.1539827286123436e-07  -4.5976628312384443e-07  -1.4729897304207547e-07  4.7786243475046061e-07  1.8148476014602061e-07  -8.0200051325778724e-07  1.0040936558882746e-06  -5.0925587314343863e-07  -4.9190379518384320e-08  2.3587440579289634e-07  1.4368713940620375e-06  7.5001994288343720e-07  7.4975331917689867e-07  4.5185474264020742e-07  -6.1594323830949879e-07  -7.6451898532916091e-07  1.0287530586963505e-07  -1.2370774373810236e-06  -8.5171257909975299e-07  -5.5972753688951330e-07  2.7032657518148033e-07  5.8562352809690128e-08  6.6032447740342698e-07  -5.3579558853366517e-06  2.8684063723789040e-07  2.7974280715463732e-04  -1.7762624465027672e-06  -9.3073880628908399e-05  7.3827611103916378e-07  -1.3538902830004016e-06  -4.8639303122382068e-04  -1.9021328832700306e-05  -2.2623698072448923e-05  -3.4890307403780544e-05  -6.9440407309448721e-06  -2.4064663878223335e-05  -8.1494727492771227e-05  5.7245790416965067e-04  -6.5613941573563805e-07  -2.0724978041039623e-07  1.0851209765871385e-06  -1.4469199850956779e-06  -6.0074187383016078e-07  1.6476613930298911e-06  -1.4757415281763957e-06  7.0774443001861105e-07  9.7841321480097584e-07  -4.8821537659244959e-07  -3.3623694384089729e-08  1.1142884474417757e-06  -7.4033767507287332e-07  -1.1031813619164016e-05  -1.2626526635398648e-06  -8.5694387455729974e-07  -8.9141319117711993e-08  -2.9993653704134395e-05  -5.5794794840686971e-06  7.4307987130678005e-08  5.1093498771759384e-07  -4.6291423598511628e-07  1.6023021558830763e-06  3.4174881126897578e-08  -4.0422833103561932e-07  1.1250779099813324e-06  7.1024071557318490e-08  1.9093080537575910e-07  -4.1258915142021926e-05  -1.0849466348753056e-06  1.3435012928914693e-07  2.8409575477064022e-07  1.4977581727944561e-06  8.2047006839432038e-07  1.4302895702041764e-06  5.3446463729129343e-07  2.4401979620517609e-07  -1.7393254731459314e-07  -1.8015618961742356e-07  1.1304697654700469e-06  -1.6194250552630420e-03  4.8073356837481981e-03  -1.2862364570456203e-05  -7.2321131889638495e-06  -1.7281855687882764e-07  4.6851409795315383e-07  -2.5765971351626580e-07  -1.0698057449746941e-06  -5.5845066818727468e-06  -1.2481611478409542e-06  -2.4626939810431341e-06  -2.0194912869342933e-06  -7.4855112087595545e-06  -4.4209648833494802e-05  1.7306884569117512e-07  5.3271134794750192e-04  6.5383258557160561e-07  7.7437962088774117e-07  -1.3344199512603398e-05  -4.5200948032891950e-04  -1.1285747547046376e-03  -6.8581510556495733e-06  -1.1991403010627013e-05  -8.8592934423770411e-05  -2.7779442385285927e-04  -1.7728529929101355e-03  -4.8115769994248511e-07  6.2737111859294262e-07  2.1051993494333147e-07  8.9101776770605966e-07  5.2531132031672003e-03  -7.0816683904312391e-06  2.6701193914629434e-07  7.3654044990670826e-07  2.7698577125588241e-07  -4.6882221326511953e-07  3.1382288405782262e-07  7.5259210712906480e-07  4.7383543947666509e-08  -8.4766022542530242e-07  -7.7204984441875832e-07  4.3637310849037070e-07  5.4273112315828233e-07  -2.6151569766034764e-06  8.7060878878192034e-07  2.5497579950615187e-07  -6.9632527302601746e-07  -2.6706574045910051e-07  -2.8907677357020155e-07  -8.1364470503331052e-07  -2.1687694641442963e-05  -6.1785706917653096e-06  -5.2133655452918344e-07  -5.1368721217715984e-07  -4.1424108472567282e-07  -4.4486619553759519e-07  -1.7396909284679537e-06  6.7618428575386233e-07  -1.1579591780550590e-06  6.8371799326058827e-07  -2.8333166095418380e-07  -8.7846874826596555e-07  1.1786730056754608e-07  -4.0843085737996230e-07  -4.4165829836512098e-07  -5.3993688411399219e-07  8.3091949738625725e-07  1.1230023760452943e-06  6.2932109041877310e-07  4.0981188888871624e-07  6.6889698259825707e-07  -5.7200622051901382e-07  1.9835414896467624e-06  -1.6158094290393442e-07  -1.3034573145850397e-05  -1.8439682885357816e-06  -2.3700354236051678e-06  -3.8106430221149379e-07  -1.2133992996315173e-08  -8.5377385008805279e-06  3.2358711961973899e-07  -3.2584313094925046e-05  -1.1250993622083818e-05  -2.3748074004576552e-05  5.4510269834770204e-04  -5.8591006793214723e-07  -4.5015280131757154e-07  -3.8353345006765582e-07  1.5144052836844514e-07  6.6106646631899626e-08  -6.5356682579110592e-07  8.9839550883436584e-07  1.1098926458780073e-06  8.6090456714293389e-05  -1.3231203111876454e-04  -3.3734169228828236e-05  1.5552559010103540e-05  1.3166903948894233e-06  4.4749485681311573e-06  -1.3194796822920227e-06  7.8768534924010728e-06  3.2320143220257223e-05  -7.9012800937233374e-05  -6.7596017999882714e-03  -2.0494614331410907e-05  1.3733117059312085e-07  5.9394222899088108e-07  8.5578984497853208e-05  1.2195714914908184e-04  4.7543978945395379e-04  2.9073213442781556e-07  5.7323527382599233e-04  -1.2621604029032288e-06  -2.4771871015698848e-07  -7.4565741632452859e-03  2.1661695595443605e-07  -5.3581507691140968e-08  -9.5604025139459394e-07  -1.0161194151924250e-06  -1.3501209562431285e-07  -2.7964163299172854e-07  8.3477427794804746e-07  1.5115753338728336e-06  -3.1787202720691900e-07  2.2167910846114158e-07  -1.6835607257066793e-07  -1.2343266841695772e-05  -3.6065357689846718e-06  9.5953697338491301e-07  -2.9261207789041442e-08  -3.6919715744922215e-04  -1.4760923194073638e-04  5.5332873938528016e-07  -3.8931214249372653e-07  7.4836476291906916e-07  -5.7411568433940533e-07  1.2651275793568469e-06  -9.7360404475799003e-07  4.4353996243039357e-07  -1.3325102942946622e-04  -6.3881683661391265e-07  2.8059995309918094e-07  -1.2885699974394713e-07  6.2103741114075638e-04  -2.6166023441022069e-05  -1.8222331792539910e-07  2.6973559288637162e-07  -2.5614932416504517e-07  1.2948386857282011e-08  7.4876145680205579e-07  4.2644600008633794e-08  -3.5434286772394705e-07  -6.6473261341126012e-07  5.0790331895849413e-07  -2.7330630956840983e-07  -2.8774061326495589e-04  -1.6957793770522109e-06  -1.3109858797247957e-05  -1.5637273787574834e-07  -1.0785335014129800e-06  -1.0133876003146433e-05  8.9127824824948892e-07  9.6249144329570119e-07  2.6100981442422868e-06  1.3050829454892685e-06  7.1299908415975205e-04  -8.0438726056071420e-06  -7.8416056849183238e-07  -6.6732957485389657e-06  -2.8216762220408083e-05  -1.5887453440770608e-07  -2.5637219751487262e-07  -4.0328853173457564e-07  -2.0151160980295713e-07  -4.6148708844301672e-07  -4.2133225398456018e-08  3.8623739521250661e-07  -8.4825068135747186e-07  -1.2104266190728059e-05  -1.4470816947179822e-05  -1.8989313544355998e-07  -6.9350240820654153e-07  3.2945256663542735e-07  -4.0633434213187704e-07  -1.0686775582450132e-03  -3.5328984818841580e-05  2.2972856221490507e-07  -5.0832383982619403e-06  -2.0545287697069168e-05  1.3974312400809039e-06  -4.6863337119825630e-07  -4.7901975012826791e-05  -8.2270458971359952e-04  -9.6710766478432430e-04  -7.5974253718278186e-04  7.6124740964807014e-07  -8.6667402112566914e-08  1.0652145637372162e-06  1.2540410901931458e-07  -4.7955647408620221e-08  1.2111226122673854e-07  -9.8227029145618698e-07  2.0581542273173579e-07  2.5492668220261076e-07  1.4744103067920158e-07  -9.7840855519877686e-07  2.6997723352250520e-07  1.7639785107322161e-06  7.1827214315712379e-07  4.1846317432886867e-07  -2.6803244888779662e-05  -1.8782037669338183e-05  2.4474277422307053e-07  2.4092687708030510e-07  -6.4755826452329151e-07  6.3395964827401372e-07  7.9432080486247683e-07  2.8801300585457444e-07  -1.6291320104456986e-06  -1.4335876059173699e-06  3.5560478378434766e-07  7.2066583455894538e-07  -7.4613628676544500e-07  -7.6938629215008792e-07  5.5747569608467607e-07  -7.0221824273317971e-09  -2.8919793260747524e-05  -9.2076817409560317e-05  1.9002150358285947e-03  -3.3303747916834485e-06  -1.1233825999965709e-06  -8.2156306618197260e-07  -5.1994123583742830e-07  -3.5155347673483114e-05  -1.7720844642732530e-06  8.3674748934648727e-07  -3.2516109571286968e-04  -9.7651847013854478e-06  -2.6254929742556716e-07  -1.1200271796593442e-08  8.3513997370595750e-07  -1.3324227713805394e-06  1.0344733229495034e-06  1.0512312574477412e-06  8.6073897863324926e-07  7.5006024782368536e-07  4.6494960743106798e-07  1.3949404253143481e-07  9.7552509019201748e-07  -8.9988570811989983e-07  6.0714531310940037e-07  -1.4924519885058896e-06  7.1562444222584801e-07  1.6556246280247832e-06  -1.8418258748660641e-07  5.6604673188856770e-07  6.4768245435633559e-07  2.4676668789397484e-06  -3.6085272215421366e-07  -2.2398571815933359e-06  -1.6765403948850778e-06  9.1650023553017776e-07  3.4613671751091635e-07  -3.4330236294995363e-08  -9.5387048997675806e-08  5.9011979212512591e-07  -7.22934413730233