<?xml version="1.0"?>
<VTKFile type="UnstructuredGrid"  version="0.1"  >
<UnstructuredGrid>
<Piece  NumberOfPoints="16808" NumberOfCells="31534">
<Points>
<DataArray  type="Float64"  NumberOfComponents="3"  format="ascii">0 12.7 0  0 0 0  0.2 0 0  0.2 12.7 0  0.2 6.35 0  0 6.35 0  0 3.175 0  0.2 3.175 0  0 9.524999999999999 0  0.2 9.524999999999999 0  0 11.1125 0  0.2 11.1125 0  0.2 1.5875 0  0 1.5875 0  0.2 4.762499999999999 0  0 4.762499999999999 0  0.2 7.937499999999999 0  0 7.937499999999999 0  0.2 10.31875 0  0 10.31875 0  0.2 11.90625 0  0 11.90625 0  0 5.556249999999999 0  0.2 5.556249999999999 0  0 0.79375 0  0.2 0.79375 0  0 2.38125 0  0.2 2.38125 0  0.2 7.143749999999999 0  0 7.143749999999999 0  0 8.731249999999999 0  0.2 8.731249999999999 0  0 3.96875 0  0.2 3.96875 0  0.2 11.509375 0  0 11.509375 0  0 10.715625 0  0.2 10.715625 0  0 7.540624999999999 0  0.2 7.540624999999999 0  0.2 2.778125 0  0 2.778125 0  0.2 5.159374999999999 0  0 5.159374999999999 0  0.2 5.953125 0  0 5.953125 0  0.2 8.334375 0  0 8.334375 0  0.2 0.396875 0  0 0.396875 0  0 1.190625 0  0.2 1.190625 0  0.2 3.571874999999999 0  0 3.571874999999999 0  0.2 4.365625 0  0 4.365625 0  0.2 1.984375 0  0 1.984375 0  0.2 6.746874999999999 0  0 6.746874999999999 0  0.2 9.128124999999999 0  0 9.128124999999999 0  0.2 9.921874999999998 0  0 9.921874999999998 0  0 12.303125 0  0.2 12.303125 0  0 11.7078125 0  0.2 11.7078125 0  0.2 10.5171875 0  0 10.5171875 0  0.2 8.135937499999999 0  0 8.135937499999999 0  0.2 5.754687499999999 0  0 5.754687499999999 0  0 5.3578125 0  0.2 5.3578125 0  0 7.739062499999999 0  0.2 7.739062499999999 0  0 3.770312499999999 0  0.2 3.770312499999999 0  0.2 1.3890625 0  0 1.3890625 0  0.2 2.579687499999999 0  0 2.579687499999999 0  0 2.9765625 0  0.2 2.9765625 0  0 4.1671875 0  0.2 4.1671875 0  0 0.1984375 0  0.2 0.1984375 0  0 0.5953124999999999 0  0.2 0.5953124999999999 0  0.2 1.7859375 0  0 1.7859375 0  0 2.1828125 0  0.2 2.1828125 0  0.2 0.9921874999999999 0  0 0.9921874999999999 0  0.2 12.1046875 0  0 12.1046875 0  0.2 12.5015625 0  0 12.5015625 0  0 9.723437499999999 0  0.2 9.723437499999999 0  0 8.9296875 0  0.2 8.9296875 0  0 9.326562499999998 0  0.2 9.326562499999998 0  0 6.548437499999999 0  0.2 6.548437499999999 0  0 6.945312499999999 0  0.2 6.945312499999999 0  0 3.3734375 0  0.2 3.3734375 0  0 8.532812499999999 0  0.2 8.532812499999999 0  0 6.1515625 0  0.2 6.1515625 0  0 4.564062499999999 0  0.2 4.564062499999999 0  0 4.960937499999999 0  0.2 4.960937499999999 0  0.2 7.342187499999999 0  0 7.342187499999999 0  0 10.1203125 0  0.2 10.1203125 0  0.2 10.9140625 0  0 10.9140625 0  0 11.3109375 0  0.2 11.3109375 0  0.1 10.81484375 0  0.1 12.00546875 0  0.1 5.85390625 0  0.1 8.235156249999999 0  0.1 8.632031249999999 0  0.1 8.83046875 0  0.1 9.425781249999998 0  0.1 9.624218749999999 0  0.1 10.21953125 0  0.1 10.41796875 0  0.1 10.61640625 0  0.1 11.60859375 0  0.1 11.80703125 0  0.1 11.41015625 0  0.1 5.258593749999999 0  0.1 7.639843749999999 0  0.1 12.7 0  0.1 4.067968749999999 0  0.1 2.87734375 0  0.09999999999999999 2.67890625 0  0.1 3.86953125 0  0.1 1.88515625 0  0.1 0.6945312499999999 0  0.1 1.28984375 0  0.1 1.48828125 0  0.1 2.08359375 0  0.1 0 0  0.1 0.29765625 0  0.1 0.8929687499999999 0  0.09999999999999999 1.09140625 0  0.1 0.4960937499999999 0  0.1 7.242968749999999 0  0.1 4.861718749999999 0  0.1 5.060156249999999 0  0.1 4.464843749999999 0  0.1 4.663281249999999 0  0.09999999999999999 3.47265625 0  0.1 6.846093749999999 0  0.1 7.044531249999999 0  0.1 6.449218749999999 0  0.1 6.647656249999999 0  0.09999999999999999 6.250781249999999 0  0.1 6.05234375 0  0.09999999999999996 1.68671875 0  0.1 4.266406249999999 0  0.1 3.07578125 0  0.09999999999999999 2.28203125 0  0.09999999999999996 2.48046875 0  0.1 3.671093749999999 0  0.1 3.27421875 0  0.09999999999999999 5.457031249999999 0  0.09999999999999996 5.65546875 0  0.09999999999999999 7.441406249999999 0  0.09999999999999999 7.838281249999999 0  0.09999999999999996 8.036718749999999 0  0.1 11.21171875 0  0.1 11.01328125 0  0.1 10.02109375 0  0.1 8.43359375 0  0.1 9.227343749999999 0  0.1 9.02890625 0  0.1 9.82265625 0  0.1 12.40234375 0  0.1 12.20390625 0  0.1 12.5755843996063 0  0 0.09921874999999999 0  0.2 0.09921874999999999 0  0.09999999999999999 0.148828125 0  0.09922180175781284 7.143749999999999 0  0 7.639843749999999 0  0.2 7.639843749999999 0  0 5.258593749999999 0  0.1007781982421872 5.159374999999999 0  0.2 5.258593749999999 0  0.09922180175781285 11.90625 0  0.09922180175781285 11.509375 0  0.1007781982421872 11.7078125 0  0 11.41015625 0  0 11.60859375 0  0.2 11.41015625 0  0.2 11.60859375 0  0.09922180175781285 10.715625 0  0.1007781982421872 10.5171875 0  0.1007781982421872 10.31875 0  0 10.41796875 0  0.2 10.41796875 0  0 10.21953125 0  0.2 10.21953125 0  0.1007781982421872 9.524999999999999 0  0 9.624218749999999 0  0.2 9.624218749999999 0  0 9.425781249999998 0  0.2 9.425781249999998 0  0.1007781982421872 5.953125 0  0.09922180175781285 8.135937499999999 0  0.1007781982421872 8.731249999999999 0  0 8.83046875 0  0.2 8.83046875 0  0 8.632031249999999 0  0.2 8.632031249999999 0  0.2 8.235156249999999 0  0 8.235156249999999 0  0.2 5.85390625 0  0 5.85390625 0  0 11.80703125 0  0 12.00546875 0  0.2 11.80703125 0  0.2 12.00546875 0  0 10.61640625 0  0 10.81484375 0  0.2 10.61640625 0  0.2 10.81484375 0  0.09922180175781287 5.556249999999999 0  0.1007781982421872 11.1125 0  0.09922180175781285 8.334375 0  0.09922180175781285 8.9296875 0  0.09922180175781285 9.723437499999999 0  0.2 12.60078125 0  0 12.60078125 0  0.1007781982421874 1.984375 0  0.1007781982421874 1.3890625 0  0 2.67890625 0  0 2.87734375 0  0.1007781982421874 2.5796875 0  0.2 2.67890625 0  0.2 2.87734375 0  0 3.86953125 0  0 4.067968749999999 0  0.1007781982421874 3.7703125 0  0.2 3.86953125 0  0.2 4.067968749999999 0  0.09922180175781263 2.9765625 0  0 2.08359375 0  0.2 2.08359375 0  0.2 1.48828125 0  0 1.48828125 0  0 1.28984375 0  0.2 1.28984375 0  0 0.6945312499999999 0  0.2 0.6945312499999999 0  0.2 1.88515625 0  0 1.88515625 0  0.09922180175781251 0.9921874999999999 0  0.1007781982421875 0.5953124999999999 0  0 0.29765625 0  0.2 0.29765625 0  0.1007781982421875 0.396875 0  0 0.4960937499999999 0  0.2 0.4960937499999999 0  0.2 1.09140625 0  0 1.09140625 0  0.1007781982421876 0.7937499999999998 0  0 0.8929687499999999 0  0.2 0.8929687499999999 0  0.1007781982421876 7.937499999999998 0  0 8.036718749999999 0  0.2 8.036718749999999 0  0 7.83828125 0  0.2 7.83828125 0  0.1007781982421876 7.739062499999999 0  0.09922180175781239 7.540624999999999 0  0.2 7.441406249999998 0  0.09922180175781239 7.3421875 0  0 7.441406249999998 0  0 5.655468749999999 0  0.09922180175781239 5.754687499999999 0  0.2 5.655468749999999 0  0 5.45703125 0  0.2 5.45703125 0  0.1007781982421876 5.3578125 0  0.1007781982421876 3.175 0  0.09922180175781241 3.571874999999999 0  0 3.671093749999999 0  0.2 3.671093749999999 0  0.1007781982421876 2.38125 0  0 2.48046875 0  0.2 2.48046875 0  0 2.28203125 0  0.2 2.28203125 0  0.1007781982421876 2.1828125 0  0 3.07578125 0  0.09922180175781242 1.5875 0  0 1.68671875 0  0.09922180175781239 1.7859375 0  0.2 1.68671875 0  0 6.05234375 0  0 6.250781249999999 0  0 6.44921875 0  0.2 6.05234375 0  0.2 6.250781249999999 0  0.1007781982421876 6.349999999999999 0  0.2 6.44921875 0  0.1007781982421876 6.548437499999999 0  0.09922180175781242 6.746874999999999 0  0.1007781982421876 6.945312499999998 0  0 6.647656249999999 0  0 6.84609375 0  0.2 6.647656249999999 0  0.2 6.84609375 0  0 3.27421875 0  0 3.47265625 0  0.2 3.07578125 0  0.2 3.27421875 0  0.1007781982421876 3.3734375 0  0.2 3.47265625 0  0.09922180175781244 4.167187499999999 0  0 4.266406249999999 0  0 4.46484375 0  0.2 4.266406249999999 0  0.1007781982421876 4.365625 0  0.2 4.46484375 0  0 5.060156249999999 0  0.2 5.060156249999999 0  0.1007781982421876 4.564062499999999 0  0.09922180175781242 4.762499999999999 0  0.1007781982421876 4.960937499999998 0  0 4.663281249999999 0  0 4.86171875 0  0.2 4.663281249999999 0  0.2 4.86171875 0  0.2 7.044531249999999 0  0.2 7.242968749999999 0  0 7.044531249999999 0  0 7.242968749999999 0  0.09922180175781239 1.190625 0  0.09922180175781241 3.96875 0  0.09922180175781241 2.778125 0  0.09922180175781195 12.303125 0  0.100778198242188 12.1046875 0  0 12.20390625 0  0 12.40234375 0  0.2 12.20390625 0  0.2 12.40234375 0  0 9.028906249999999 0  0 9.227343749999999 0  0.09922180175781198 9.128125000000001 0  0.09922180175781198 9.3265625 0  0.2 9.028906249999999 0  0.2 9.227343749999999 0  0 8.43359375 0  0.09922180175781198 8.5328125 0  0.2 8.43359375 0  0 9.822656249999998 0  0 10.02109375 0  0.09922180175781198 9.921875 0  0.09922180175781198 10.1203125 0  0.2 9.822656249999998 0  0.2 10.02109375 0  0.09922180175781196 10.9140625 0  0 11.01328125 0  0 11.21171875 0  0.09922180175781198 11.3109375 0  0.2 11.01328125 0  0.2 11.21171875 0  0.09922180175781198 6.1515625 0  0.08672180175781248 12.48896407480315 0  0.07461090087890626 0.2232421875 0  0.1253890991210938 0.0744140625 0  0.05038909912109379 4.3164077878937 0  0.1496109008789064 5.605467212106299 0  0.1496109008789064 8.0867202878937 0  0.05038909912109358 5.1101577878937 0  0.05038909912109338 4.514845287893699 0  0.05038909912109338 6.896095287893699 0  0.05038909912109338 6.499220287893699 0  0.05000000000000002 6.002734375 0  0.05000000000000002 3.819921874999999 0  0.1496109008789064 5.5070327878937 0  0.1499999999999996 7.391796874999998 0  0.05038909912109338 4.911720287893699 0  0.1496109008789069 9.971092212106297 0  0.1496109008789069 9.177342212106298 0  0.05038909912109314 12.0554702878937 0  0.149610900878906 12.2539077878937 0  0.05 12.7 0  0.1374999999999996 12.63779219980315 0  0.1496109008789064 9.772654712106299 0  0.1496109008789064 9.6742202878937 0  0.1496109008789064 8.978904712106299 0  0.1496109008789064 8.880470287893701 0  0.1496109008789064 8.383592212106299 0  0.1496109008789064 
[...]
<PointData  Scalars="sigma (Pa)"> 
<DataArray  type="Float64"  Name="sigma (Pa)"  format="ascii">4.0989870243143111e-03  3.9794392927007243e-03  -3.6174092936844078e-03  -3.9538448509207434e-03  -1.6830976681148482e-06  1.4247602980655224e-09  5.5784539338961421e-09  -5.0787454131931379e-08  4.5423965630301597e-08  2.5907349291619938e-08  -7.4894994819427245e-08  -2.9616340102778827e-07  2.9837326125858908e-08  -3.5507792319412123e-08  8.6785288149636376e-09  7.7459905865943047e-09  -4.4555108678747900e-07  -1.9438980065184688e-07  -5.3611034962502231e-09  -4.8632514253631988e-10  8.8385873101083798e-08  7.4794930073970421e-08  2.7358622616360940e-08  -2.1116836237415664e-05  -2.3903347580074457e-08  2.9193467725265362e-08  5.8849427905820510e-09  -4.5819617485975210e-08  -1.0880479890889218e-05  2.0655465570343393e-08  -9.4088529732623110e-08  -2.6548931559703451e-09  -1.5152760544065796e-07  -2.4567942719930965e-08  4.6154983795706890e-08  1.7004162223852793e-07  6.5686593967044088e-09  -1.2181735488732791e-09  9.5105606310086443e-07  -7.9264133475771104e-05  -2.1137590931469753e-08  -1.1049508107776907e-07  7.0230350372891260e-05  -1.6378415754084729e-06  -4.9820412946147968e-06  5.0122501868423035e-09  2.9360222809057728e-08  -2.7590645953044221e-08  7.3935747745230382e-09  -1.4401997999486637e-08  -1.9595082653027317e-08  -2.5647488202975430e-08  -4.7966965099473092e-09  5.4845514243671537e-08  -1.5869455226601282e-08  -6.9475269135629481e-09  -5.3851221898886251e-08  -6.6014847997050354e-09  2.9435016961247541e-06  5.1391061441009426e-11  1.6505480564665383e-09  2.6701067887169025e-08  3.9144341354868413e-09  5.1171485958758699e-08  3.7862020913806134e-08  1.7761649879994654e-07  4.2492958409037281e-08  -4.3284850202991802e-08  3.1065906155958616e-08  -1.0902003197529875e-07  -8.7084691928558485e-08  -2.6963686870875862e-07  -1.0219796066451496e-05  3.8697882853764446e-08  1.6025411485537375e-07  -7.4567728921330325e-05  -3.9431988100557606e-07  2.5479139861360575e-05  -2.6019088701822940e-08  5.5197026654251196e-08  -1.3479401745655081e-08  1.2235773306884049e-07  9.7159989060250953e-08  2.8487487388565028e-08  8.0814141694574207e-09  -8.8950254424642889e-09  -1.9081618872485241e-08  8.1246304291904775e-08  6.1479352163903744e-08  1.3077280629258539e-07  -2.3181313437310761e-08  1.9893112078326646e-08  -4.1741194318114948e-08  -9.6013807362072207e-09  8.2393034412915002e-08  -4.1262590533804761e-08  1.5253187263916473e-09  4.5810984170316700e-08  -3.1638008394166596e-09  1.8922379545626782e-08  -2.4652680055071117e-08  4.9672137601163691e-08  -7.2970651319287986e-09  4.4160792648017548e-08  4.7769328282898696e-08  3.2264357704218264e-08  2.2746108510728553e-08  -6.7596202795709008e-08  -4.8357375999600118e-09  -1.7239509713789255e-06  -1.4892135876405334e-08  -5.3266387897128603e-06  3.7741653050744414e-08  1.2016330005876505e-08  2.0036144335010303e-08  -4.3316815075105453e-08  1.0036337573315838e-08  2.0341744487695921e-06  -2.6012177092506167e-08  -1.3603867430461107e-07  -1.6096569269422083e-07  -4.9538188787191686e-07  -2.2429339117199882e-05  -3.9910102485292801e-08  2.4963067989998617e-08  -7.1048407445446232e-08  2.7923402108163803e-09  1.5871986758176735e-09  -1.4357037350814802e-07  3.6954825425789608e-08  -5.3605089562974275e-08  1.5797367557974967e-08  -1.9016120412116497e-06  -7.4981108653750878e-08  2.3942788626245382e-08  3.7793898131862729e-08  -8.5061681596177819e-08  2.1549006363899622e-09  -4.2943716733716297e-08  8.1283666087476647e-08  2.0628883406572617e-09  -4.8818277230919763e-08  1.8394407962742882e-08  -9.2141080528828712e-09  -8.9391851064928043e-05  -9.7548831810976105e-05  8.9173349167766743e-06  -9.2635818281550904e-08  2.4850028790104630e-08  -6.1123175345288544e-08  -6.5693832438031439e-09  1.0438870950210312e-08  -8.5015181981598695e-08  6.6703835448768852e-08  -4.6198289221517688e-08  -1.5831680223803303e-08  2.4103164834954042e-05  1.0834123124244732e-07  -5.1653012925504127e-08  8.8771126585347268e-08  -2.1784387343388447e-08  -4.5748797825173209e-06  -1.7547847413801545e-06  1.5576412419186981e-04  1.0023270265931143e-07  4.2213528004022790e-08  -1.1064096810616552e-07  -1.1456096906269453e-06  -2.0709817796321486e-06  -4.3032961237811417e-07  -7.2128077612622656e-07  -6.6985538642264931e-07  -1.0673089251476023e-06  -8.8901884652800167e-08  2.3439681857129253e-09  -4.8694133751919808e-08  8.6977645060140321e-09  8.0877240720913454e-09  3.9794025177920227e-08  1.3305884059243742e-07  -1.3100170287256330e-05  -3.9385055475816901e-06  -1.3978329239230985e-05  1.6714600917808696e-04  -1.6174075272521508e-06  3.7796742362954698e-08  -6.6495824430002270e-08  -6.3960962769839110e-08  1.7214108234360708e-08  -4.2632685489800048e-08  2.6860943555383214e-08  6.7981475191480739e-08  2.7523421115715223e-07  -8.5512873985640150e-09  -5.3459634048715850e-07  8.7858639297541881e-07  3.1488785913624948e-07  -3.8806328766722639e-07  -3.0373486018393882e-06  1.9599746531380102e-06  -1.2975645668218653e-04  -4.4723527444922581e-07  7.6605507591152242e-06  -1.1869052856040335e-04  -5.0377575488525719e-08  2.2931682507327367e-08  -2.2369549017868454e-08  -9.1562479610879328e-08  1.6253404991767574e-08  1.9349177394395352e-08  8.5934741686750675e-09  -1.1297598997968275e-07  2.7667198064159846e-08  -7.3063693480935841e-08  1.2727440316733608e-07  -2.7672400848581006e-08  -1.1179786414648731e-07  -4.1487611168637549e-08  1.2034342221856828e-07  -9.6045336857844041e-09  9.8024971279062436e-09  6.7945069877775071e-08  1.2644262272193634e-08  -1.4343995316275050e-06  -2.6331519634244478e-07  1.3963428524600965e-08  7.4665884775926296e-08  -7.2212633815061826e-08  1.7272329009731118e-08  -2.0148643050141743e-08  -4.3481635350484464e-08  -4.9778206544730982e-08  -7.0367871915428498e-06  3.7804877570486233e-09  -1.7022945789192228e-07  -2.6088698195195413e-08  4.8212114504017266e-08  -3.2478266722340496e-09  6.2201238545006507e-08  -1.2202901482004416e-07  4.2174933176068130e-09  2.5895698044643936e-09  -4.6023723132575844e-06  -1.9434807243444604e-08  -4.3506814314056723e-08  -2.8225474757212735e-08  -1.1454627981582314e-07  3.1274843807881159e-07  3.6535215899830077e-07  8.0023352484491299e-08  1.3958139071696037e-07  3.5100328766902437e-09  1.0745933157437160e-07  1.3041296684196531e-07  1.1304885858619165e-07  -6.2322388301003979e-10  2.4314529365451841e-08  -1.9446767167861939e-08  1.1976842134611085e-07  -7.4334813004313233e-09  -1.3208384325812508e-07  -1.2205836721260090e-08  -7.0571341220487345e-08  6.7705983073198326e-08  6.9392875332957509e-08  1.0768488696983186e-07  -2.8425446252765092e-08  3.1269394761498913e-09  -4.6157352763050637e-08  -3.5965000879810301e-08  3.5212328628969698e-08  -1.2378258575565013e-07  -2.8028100234122011e-08  4.4956425492748616e-09  -2.4780796454899418e-08  1.8054375569437706e-07  8.2211145513196038e-08  1.2690548950491818e-07  2.9343171333350311e-08  8.4272615614482536e-08  -2.4378459439915670e-09  6.1971112435400242e-08  5.2560963081039455e-08  -1.1336233563468476e-08  1.4651627081703793e-05  -2.1605268487868200e-08  1.6844524332050716e-08  -1.5996880674871540e-06  -4.1077536034212643e-05  6.7233642742724597e-06  -4.2953242862909837e-05  -4.1290048250419278e-05  -4.6181513131989731e-06  -4.1869959850664906e-08  -2.4106549856296894e-08  -2.9081172643519453e-06  -4.2486084713979924e-05  8.5543028850576281e-08  -3.8514592359876310e-05  -4.1102729741162450e-05  7.6258887249743676e-08  -4.7652704442309152e-08  4.5049061311893729e-08  -6.6987444330483567e-09  8.6686277793166203e-09  -5.7874513075255086e-08  4.4508567783083206e-08  -2.6555804670603935e-08  -2.1607539408669400e-11  7.1116653304994276e-08  -1.4619670826902563e-08  4.0467248916706073e-08  3.8839523967468412e-08  7.2276131913454204e-08  1.3583248598796494e-07  -1.1870507165570014e-08  -4.0792233227946612e-10  2.6817571513399482e-09  -3.5862532371305417e-06  -2.1714383840736381e-06  -4.7621144841433497e-07  -1.5717474568503484e-06  -4.8963462622157574e-07  -5.5619497284948335e-07  -1.5514362036877933e-06  7.1044010126189263e-09  9.1530478058947768e-10  -2.2374236093525414e-06  -3.8732369783085111e-06  -4.4643771250752605e-08  -2.0920601066952182e-08  3.0080120036859235e-08  3.4696515272050549e-08  3.0413700721030954e-08  8.0454493731357458e-08  3.5379088989846245e-09  1.7514582775160974e-07  2.0323335140936985e-08  -2.3772815913765999e-08  -2.0288598257704045e-08  6.3018882399773940e-08  -1.8050265021327628e-06  -3.1440609527444912e-05  1.5002055537190783e-07  -4.2941361947488948e-07  1.2438634454161080e-05  -3.2785909455336220e-08  -1.0793861507473057e-07  9.2208277576692098e-08  7.0685549502197120e-08  -7.5420587489490073e-06  6.9255070796517019e-05  1.3980681524778679e-08  -7.8524120959157234e-09  9.3109230746050325e-09  1.3316915203638356e-08  1.0229760975433263e-07  -5.6223121960068001e-08  8.3055065443040976e-08  -1.3440177848524623e-07  -2.3746445612879793e-07  -1.4256172315969120e-08  3.5256071934072982e-08  2.8964944186548740e-08  -6.4657818106842933e-08  -6.1660423161768599e-08  -8.8208499037202036e-09  3.9947618875519518e-08  7.2756422648248637e-08  -2.0162548100280530e-07  -3.9260084987294247e-08  2.1345120781843653e-08  3.8085180071481035e-08  -3.2902688295315664e-09  -4.2871205482603728e-08  3.2560544819722751e-09  1.1396700017816511e-08  1.5155703846294836e-07  -8.4276252008896103e-08  -2.0585051864434030e-07  -3.3644250860561738e-08  1.2103433774593728e-09  1.0400591562198422e-08  2.3113063715877059e-08  -5.4329163733035799e-07  -5.2903605094256635e-07  -3.7443849176164947e-07  7.3359123966819149e-06  1.2001581802579312e-07  -3.8286258342818184e-06  -5.5182567968132740e-07  4.4568684232340767e-05  3.5405015244482521e-08  -3.6595044105183633e-07  -1.1429718604304159e-07  -3.2196155712171328e-07  5.2324455757105943e-08  -1.6956932210679880e-05  -1.8421461651668789e-05  -2.8862782167262761e-08  7.4067192266896699e-08  -4.1615353550466472e-08  -3.3344697253611416e-08  1.3179625008716311e-08  7.0815007769637326e-04  -2.5868484202846084e-06  7.1073227936085075e-08  -1.9737012775457092e-08  -1.0191288295645142e-08  -9.1305953801147715e-08  2.6233170297841704e-08  -1.3814849225867472e-07  2.8759066441354386e-08  6.4599463949678379e-08  2.7559371553031780e-08  -1.0828336515804934e-07  -4.5414501650929914e-08  -3.6328888880681524e-09  -2.4952695316709616e-08  -4.0792459931770789e-07  -4.8985215335169542e-06  4.2296973114007011e-09  1.9797090639937376e-08  2.8848842219573120e-08  5.8152767696780592e-08  9.7061603625889733e-08  -6.9151436787031385e-08  -7.6039670127262735e-08  -1.0821742328508500e-07  -1.3694412688992647e-08  1.3249500406693811e-07  -3.0645635437166470e-08  2.6147181401282826e-08  -2.2681899100576704e-08  7.7180635923984402e-08  -1.2506059847115320e-08  3.0117672379002305e-08  -6.9766898125018615e-08  -2.7523829770054049e-05  -2.3062523691999163e-05  -1.0355885814560853e-04  -2.9139901607436330e-05  -8.9843354416180447e-08  -3.4949678990716915e-08  2.6063427602666757e-05  -5.7774457975184580e-08  -3.1981033414285296e-10  -8.0997702512480084e-06  -1.4710870769824721e-07  -5.2986349981163252e-06  -9.1027394793885016e-08  -1.7645315056957398e-06  -6.3866572632320241e-08  -9.2177241883106710e-08  7.0845872382249952e-08  6.2817289517774104e-08  -7.2237425249846867e-08  1.5173286447386926e-08  5.4182858926996091e-08  -2.2700830813881545e-08  3.7902652548106907e-08  6.1242081111104294e-04  1.6057532522502776e-08  1.1699298551537808e-07  2.1487916449915394e-08  5.3839567935416549e-08  4.4285101033220008e-08  -3.9504967845886377e-08  -1.2656548238133359e-08  4.1059871511218993e-08  1.5593910723906896e-08  -6.8911127464201595e-08  8.6275785412276001e-08  -4.3757326240394883e-08  -4.2266385348803107e-09  2.0267250479706504e-08  1.2346182642483316e-07  6.4444717433067152e-08  6.4421856034743862e-08  3.8825175249865360e-08  -5.2924338646873496e-08  -6.5690547003184394e-08  8.8394631881276332e-09  -1.0629472108603021e-07  -7.3182578678668108e-08  -4.8094043480647474e-08  2.3227548624274693e-08  5.0319410184611247e-09  5.6737735274706714e-08  -4.6037716136234849e-07  2.4646516898294352e-08  2.4036632763613663e-05  -1.5262364862306449e-07  -7.9972839746212023e-06  6.3435683367371280e-08  -1.1633176552631596e-07  -4.1792855410026798e-05  -1.6343894551839547e-06  -1.9439196018223529e-06  -2.9979162064533526e-06  -5.9666005209412058e-07  -2.0677331775618938e-06  -7.0023564005254377e-06  4.9187897096648142e-05  -5.6378161397013050e-08  -1.7807725292191299e-08  9.3237980705894611e-08  -1.2432521431699428e-07  -5.1618159129533321e-08  1.4157375599811361e-07  -1.2680173611807660e-07  6.0812253517249305e-08  8.4069201419283265e-08  -4.1949437119307196e-08  -2.8890841131932898e-09  9.5744151315380018e-08  -6.3612772729148720e-08  -9.4789798950950596e-07  -1.0849222566863500e-07  -7.3632075527833016e-08  -7.6594210061696005e-09  -2.5771759548562744e-06  -4.7941141508871180e-07  6.3848134964346695e-09  4.3901656292296890e-08  -3.9775450998304411e-08  1.3767626186649571e-07  2.9364367431496579e-09  -3.4732951041694712e-08  9.6671244299575758e-08  6.1026747670646647e-09  1.6405547889206429e-08  -3.5451327454036546e-06  -9.3222986397043851e-08  1.1543947815254531e-08  2.4410657451366814e-08  1.2869347635159684e-07  7.0498162251246230e-08  1.2289625161060641e-07  4.5923367880483749e-08  2.0967153418979620e-08  -1.4944986343112557e-08  -1.5479741333361520e-08  9.7134537659474300e-08  -1.3914754681372909e-04  4.1306571424933514e-04  -1.1051863994890894e-06  -6.2141238815189877e-07  -1.4849311780273916e-08  4.0256616891103130e-08  -2.2139219145682339e-08  -9.1922043608094195e-08  -4.7984331986279036e-07  -1.0724703061978967e-07  -2.1160464207297569e-07  -1.7352287876649429e-07  -6.4318533298225221e-07  -3.7986716936233475e-06  1.4870743604070932e-08  4.5772712328438248e-05  5.6179958354555919e-08  6.6537916643824075e-08  -1.1465876064670092e-06  -3.8838481709902235e-05  -9.6971704897659032e-05  -5.8928007814645937e-07  -1.0303498269192671e-06  -7.6122630126243675e-06  -2.3869219823682875e-05  -1.5233069538151913e-04  -4.1343008670889479e-08  5.3906267301401959e-08  1.8088719563609781e-08  7.6559846884422069e-08  4.5136872058829780e-04  -6.0848555769833165e-07  2.2942722845876274e-08  6.3286548934325930e-08  2.3799745652188373e-08  -4.0283100196141990e-08  2.6964937132262961e-08  6.4665755364481959e-08  4.0713847464647780e-09  -7.2834389923552802e-08  -6.6337643218285536e-08  3.7494939181697477e-08  4.6633650188782898e-08  -2.2470484536452295e-07  7.4806195507578506e-08  2.1908550616674562e-08  -5.9831109987233020e-08  -2.2947366955862249e-08  -2.4838662189762908e-08  -6.9911653302414237e-08  -1.8634944200928726e-06  -5.3088776020731125e-07  -4.4795333063574689e-08  -4.4138076713772277e-08  -3.5593283952569203e-08  -3.8224715934675656e-08  -1.4948129787908410e-07  5.8100464924180774e-08  -9.9496516689026163e-08  5.8747787870581243e-08  -2.4345018073103956e-08  -7.5481584304530751e-08  1.0127635704353420e-08  -3.5094060159423309e-08  -3.7949093615195488e-08  -4.6393559239775764e-08  7.1395962405670317e-08  9.6492900875631821e-08  5.4073818446275508e-08  3.5212701493435867e-08  5.7474330025216278e-08  -4.9149081571505605e-08  1.7043391871677757e-07  -1.3883701601023381e-08  -1.1199831761730762e-06  -1.5844118158402615e-07  -2.0364303944650408e-07  -3.2742613136005814e-08  -1.0425958483337872e-09  -7.3359700279494771e-07  2.7803915279928088e-08  -2.7997758579635985e-06  -9.6673085645766028e-07  -2.0405305407973693e-06  4.6837427251784562e-05  -5.0343762250670356e-08  -3.8678938106099445e-08  -3.2954737537474326e-08  1.3012381759427999e-08  5.6801688276273331e-09  -5.6157100134040194e-08  7.7193757565045265e-08  9.5366462979136844e-08  7.3972400362488439e-06  -1.1368784546137893e-05  -2.8985761807491685e-06  1.3363387367820813e-06  1.1313536032279843e-07  3.8450566970856160e-07  -1.1337502780669274e-07  6.7681109204166505e-07  2.7770773500663196e-06  -6.7890992425779640e-06  -5.8081231035557478e-04  -1.7609801066634386e-06  1.1800048914539783e-08  5.1033917221675837e-08  7.3532922758553063e-06  1.0479051230745895e-05  4.0851708535276727e-05  2.4980870321941082e-08  4.9254691897267940e-05  -1.0844993801752585e-07  -2.1284904618056871e-08  -6.4069899311213993e-04  1.8612603628321713e-08  -4.6038878226645958e-09  -8.2146842634268472e-08  -8.7309084791977452e-08  -1.1600744260362544e-08  -2.4027909523116394e-08  7.1727180607478579e-08  1.2988067252263643e-07  -2.7312841597854482e-08  1.9047566159096558e-08  -1.4465845962229276e-08  -1.0605833351520012e-06  -3.0988815273845994e-07  8.2447288099936186e-08  -2.5142304141601732e-09  -3.1722912147634841e-05  -1.2683181874869681e-05  4.7544242806846061e-08  -3.3451262735123395e-08  6.4302575985256691e-08  -4.9330340891887929e-08  1.0870493604327806e-07  -8.3655972862290415e-08  3.8110769365681625e-08  -1.1449467087467430e-05  -5.4889713055622551e-08  2.4110301499874607e-08  -1.1071922424153747e-08  5.3362044729231761e-05  -2.2482904617233599e-06  -1.5657349086716634e-08  2.3176768880334443e-08  -2.2009383164145547e-08  1.1125427974447461e-09  6.4336612766934902e-08  3.6641757161220474e-09  -3.0446569130225479e-08  -5.7116509819136242e-08  4.3641109481379463e-08  -2.3483568459520875e-08  -2.4723836602941132e-05  -1.4570821636319887e-07  -1.1264520314699634e-06  -1.3436177886539504e-08  -9.2671951901825330e-08  -8.7074356061754739e-07  7.6582169554991943e-08  8.2701170266774312e-08  2.2427021929358441e-07  1.1213799790771278e-07  6.1263763405737781e-05  -6.9116206450116607e-07  -6.7378307043622195e-08  -5.7339654226871415e-07  -2.4244982538275878e-06  -1.3651141749181209e-08  -2.2028557965906030e-08  -3.4652190785411326e-08  -1.7314689801044203e-08  -3.9652836020814093e-08  -3.6202506916747899e-09  3.3187071414273998e-08  -7.2885117197318265e-08  -1.0400474318808696e-06  -1.2433911357664991e-06  -1.6316384716424492e-08  -5.9588535520524033e-08  2.8307895350521379e-08  -3.4913905223009511e-08  -9.1825095597027143e-05  -3.0356092306399173e-06  1.9739233231376278e-08  -4.3677239167625284e-07  -1.7653341463435795e-06  1.2007299083886264e-07  -4.0266869497677134e-08  -4.1159312589299993e-06  -7.0690103918603651e-05  -8.3097799754799868e-05  -6.5280149809920178e-05  6.5409456132232987e-08  -7.4468122971172650e-09  9.1527540846005943e-08  1.0775230595949605e-08  -4.1205456048988730e-09  1.0406435047371628e-08  -8.4400655505675462e-08  1.7684506889003765e-08  2.1904359415454835e-08  1.2668705571688153e-08  -8.4068838112431902e-08  2.3197582480510534e-08  1.5156817178286190e-07  6.1716844690702084e-08  3.5956070934500968e-08  -2.3030430884929768e-06  -1.6138285611391475e-06  2.1029289402806332e-08  2.0701461359241823e-08  -5.5640815137014560e-08  5.4472382405257020e-08  6.8251248071999038e-08  2.4747196298940787e-08  -1.3998160970931669e-07  -1.2317966664240789e-07  3.0555017726709707e-08  6.1922539109395642e-08  -6.4111033168844369e-08  -6.6108752180476093e-08  4.7900558193742923e-08  -6.0337318517670395e-10  -2.4849054994527635e-06  -7.9116123358794245e-06  1.6327415691911473e-04  -2.8615927680331184e-07  -9.6525554440748138e-08  -7.0591994925688935e-08  -4.4675461319618882e-08  -3.0206895581459550e-06  -1.5226466147931697e-07  7.1896716485159085e-08  -2.7939155735062803e-05  -8.3906416292491483e-07  -2.2559297717013528e-08  -9.6235778544888893e-10  7.1758612070927121e-08  -1.1448713551504800e-07  8.8886137267842618e-08  9.0326094312788430e-08  7.3958164276104635e-08  6.4448234996863756e-08  3.9950351850858836e-08  1.1985896031291120e-08  8.3821058830226522e-08  -7.7321817565255043e-08  5.2168379007165442e-08  -1.2823751017568118e-07  6.1489345572067163e-08  1.4225796251719037e-07  -1.5825713474018497e-08  4.8637022195061438e-08  5.5651494491505908e-08  2.1203191376601661e-07  -3.1005902119099379e-08  -1.9245756836371932e-07  -1.4405510508244665e-07  7.8749411479596429e-08  2.9741481031798847e-08  -2.9497936751989464e-09  -8.1960481813882756e-09  5.0705473770502149e-08  -6.21174916765442