<?xml version="1.0"?>
<VTKFile type="UnstructuredGrid"  version="0.1"  >
<UnstructuredGrid>
<Piece  NumberOfPoints="16808" NumberOfCells="31534">
<Points>
<DataArray  type="Float64"  NumberOfComponents="3"  format="ascii">0 12.7 0  0 0 0  0.2 0 0  0.2 12.7 0  0.2 6.35 0  0 6.35 0  0 3.175 0  0.2 3.175 0  0 9.524999999999999 0  0.2 9.524999999999999 0  0 11.1125 0  0.2 11.1125 0  0.2 1.5875 0  0 1.5875 0  0.2 4.762499999999999 0  0 4.762499999999999 0  0.2 7.937499999999999 0  0 7.937499999999999 0  0.2 10.31875 0  0 10.31875 0  0.2 11.90625 0  0 11.90625 0  0 5.556249999999999 0  0.2 5.556249999999999 0  0 0.79375 0  0.2 0.79375 0  0 2.38125 0  0.2 2.38125 0  0.2 7.143749999999999 0  0 7.143749999999999 0  0 8.731249999999999 0  0.2 8.731249999999999 0  0 3.96875 0  0.2 3.96875 0  0.2 11.509375 0  0 11.509375 0  0 10.715625 0  0.2 10.715625 0  0 7.540624999999999 0  0.2 7.540624999999999 0  0.2 2.778125 0  0 2.778125 0  0.2 5.159374999999999 0  0 5.159374999999999 0  0.2 5.953125 0  0 5.953125 0  0.2 8.334375 0  0 8.334375 0  0.2 0.396875 0  0 0.396875 0  0 1.190625 0  0.2 1.190625 0  0.2 3.571874999999999 0  0 3.571874999999999 0  0.2 4.365625 0  0 4.365625 0  0.2 1.984375 0  0 1.984375 0  0.2 6.746874999999999 0  0 6.746874999999999 0  0.2 9.128124999999999 0  0 9.128124999999999 0  0.2 9.921874999999998 0  0 9.921874999999998 0  0 12.303125 0  0.2 12.303125 0  0 11.7078125 0  0.2 11.7078125 0  0.2 10.5171875 0  0 10.5171875 0  0.2 8.135937499999999 0  0 8.135937499999999 0  0.2 5.754687499999999 0  0 5.754687499999999 0  0 5.3578125 0  0.2 5.3578125 0  0 7.739062499999999 0  0.2 7.739062499999999 0  0 3.770312499999999 0  0.2 3.770312499999999 0  0.2 1.3890625 0  0 1.3890625 0  0.2 2.579687499999999 0  0 2.579687499999999 0  0 2.9765625 0  0.2 2.9765625 0  0 4.1671875 0  0.2 4.1671875 0  0 0.1984375 0  0.2 0.1984375 0  0 0.5953124999999999 0  0.2 0.5953124999999999 0  0.2 1.7859375 0  0 1.7859375 0  0 2.1828125 0  0.2 2.1828125 0  0.2 0.9921874999999999 0  0 0.9921874999999999 0  0.2 12.1046875 0  0 12.1046875 0  0.2 12.5015625 0  0 12.5015625 0  0 9.723437499999999 0  0.2 9.723437499999999 0  0 8.9296875 0  0.2 8.9296875 0  0 9.326562499999998 0  0.2 9.326562499999998 0  0 6.548437499999999 0  0.2 6.548437499999999 0  0 6.945312499999999 0  0.2 6.945312499999999 0  0 3.3734375 0  0.2 3.3734375 0  0 8.532812499999999 0  0.2 8.532812499999999 0  0 6.1515625 0  0.2 6.1515625 0  0 4.564062499999999 0  0.2 4.564062499999999 0  0 4.960937499999999 0  0.2 4.960937499999999 0  0.2 7.342187499999999 0  0 7.342187499999999 0  0 10.1203125 0  0.2 10.1203125 0  0.2 10.9140625 0  0 10.9140625 0  0 11.3109375 0  0.2 11.3109375 0  0.1 10.81484375 0  0.1 12.00546875 0  0.1 5.85390625 0  0.1 8.235156249999999 0  0.1 8.632031249999999 0  0.1 8.83046875 0  0.1 9.425781249999998 0  0.1 9.624218749999999 0  0.1 10.21953125 0  0.1 10.41796875 0  0.1 10.61640625 0  0.1 11.60859375 0  0.1 11.80703125 0  0.1 11.41015625 0  0.1 5.258593749999999 0  0.1 7.639843749999999 0  0.1 12.7 0  0.1 4.067968749999999 0  0.1 2.87734375 0  0.09999999999999999 2.67890625 0  0.1 3.86953125 0  0.1 1.88515625 0  0.1 0.6945312499999999 0  0.1 1.28984375 0  0.1 1.48828125 0  0.1 2.08359375 0  0.1 0 0  0.1 0.29765625 0  0.1 0.8929687499999999 0  0.09999999999999999 1.09140625 0  0.1 0.4960937499999999 0  0.1 7.242968749999999 0  0.1 4.861718749999999 0  0.1 5.060156249999999 0  0.1 4.464843749999999 0  0.1 4.663281249999999 0  0.09999999999999999 3.47265625 0  0.1 6.846093749999999 0  0.1 7.044531249999999 0  0.1 6.449218749999999 0  0.1 6.647656249999999 0  0.09999999999999999 6.250781249999999 0  0.1 6.05234375 0  0.09999999999999996 1.68671875 0  0.1 4.266406249999999 0  0.1 3.07578125 0  0.09999999999999999 2.28203125 0  0.09999999999999996 2.48046875 0  0.1 3.671093749999999 0  0.1 3.27421875 0  0.09999999999999999 5.457031249999999 0  0.09999999999999996 5.65546875 0  0.09999999999999999 7.441406249999999 0  0.09999999999999999 7.838281249999999 0  0.09999999999999996 8.036718749999999 0  0.1 11.21171875 0  0.1 11.01328125 0  0.1 10.02109375 0  0.1 8.43359375 0  0.1 9.227343749999999 0  0.1 9.02890625 0  0.1 9.82265625 0  0.1 12.40234375 0  0.1 12.20390625 0  0.1 12.5755843996063 0  0 0.09921874999999999 0  0.2 0.09921874999999999 0  0.09999999999999999 0.148828125 0  0.09922180175781284 7.143749999999999 0  0 7.639843749999999 0  0.2 7.639843749999999 0  0 5.258593749999999 0  0.1007781982421872 5.159374999999999 0  0.2 5.258593749999999 0  0.09922180175781285 11.90625 0  0.09922180175781285 11.509375 0  0.1007781982421872 11.7078125 0  0 11.41015625 0  0 11.60859375 0  0.2 11.41015625 0  0.2 11.60859375 0  0.09922180175781285 10.715625 0  0.1007781982421872 10.5171875 0  0.1007781982421872 10.31875 0  0 10.41796875 0  0.2 10.41796875 0  0 10.21953125 0  0.2 10.21953125 0  0.1007781982421872 9.524999999999999 0  0 9.624218749999999 0  0.2 9.624218749999999 0  0 9.425781249999998 0  0.2 9.425781249999998 0  0.1007781982421872 5.953125 0  0.09922180175781285 8.135937499999999 0  0.1007781982421872 8.731249999999999 0  0 8.83046875 0  0.2 8.83046875 0  0 8.632031249999999 0  0.2 8.632031249999999 0  0.2 8.235156249999999 0  0 8.235156249999999 0  0.2 5.85390625 0  0 5.85390625 0  0 11.80703125 0  0 12.00546875 0  0.2 11.80703125 0  0.2 12.00546875 0  0 10.61640625 0  0 10.81484375 0  0.2 10.61640625 0  0.2 10.81484375 0  0.09922180175781287 5.556249999999999 0  0.1007781982421872 11.1125 0  0.09922180175781285 8.334375 0  0.09922180175781285 8.9296875 0  0.09922180175781285 9.723437499999999 0  0.2 12.60078125 0  0 12.60078125 0  0.1007781982421874 1.984375 0  0.1007781982421874 1.3890625 0  0 2.67890625 0  0 2.87734375 0  0.1007781982421874 2.5796875 0  0.2 2.67890625 0  0.2 2.87734375 0  0 3.86953125 0  0 4.067968749999999 0  0.1007781982421874 3.7703125 0  0.2 3.86953125 0  0.2 4.067968749999999 0  0.09922180175781263 2.9765625 0  0 2.08359375 0  0.2 2.08359375 0  0.2 1.48828125 0  0 1.48828125 0  0 1.28984375 0  0.2 1.28984375 0  0 0.6945312499999999 0  0.2 0.6945312499999999 0  0.2 1.88515625 0  0 1.88515625 0  0.09922180175781251 0.9921874999999999 0  0.1007781982421875 0.5953124999999999 0  0 0.29765625 0  0.2 0.29765625 0  0.1007781982421875 0.396875 0  0 0.4960937499999999 0  0.2 0.4960937499999999 0  0.2 1.09140625 0  0 1.09140625 0  0.1007781982421876 0.7937499999999998 0  0 0.8929687499999999 0  0.2 0.8929687499999999 0  0.1007781982421876 7.937499999999998 0  0 8.036718749999999 0  0.2 8.036718749999999 0  0 7.83828125 0  0.2 7.83828125 0  0.1007781982421876 7.739062499999999 0  0.09922180175781239 7.540624999999999 0  0.2 7.441406249999998 0  0.09922180175781239 7.3421875 0  0 7.441406249999998 0  0 5.655468749999999 0  0.09922180175781239 5.754687499999999 0  0.2 5.655468749999999 0  0 5.45703125 0  0.2 5.45703125 0  0.1007781982421876 5.3578125 0  0.1007781982421876 3.175 0  0.09922180175781241 3.571874999999999 0  0 3.671093749999999 0  0.2 3.671093749999999 0  0.1007781982421876 2.38125 0  0 2.48046875 0  0.2 2.48046875 0  0 2.28203125 0  0.2 2.28203125 0  0.1007781982421876 2.1828125 0  0 3.07578125 0  0.09922180175781242 1.5875 0  0 1.68671875 0  0.09922180175781239 1.7859375 0  0.2 1.68671875 0  0 6.05234375 0  0 6.250781249999999 0  0 6.44921875 0  0.2 6.05234375 0  0.2 6.250781249999999 0  0.1007781982421876 6.349999999999999 0  0.2 6.44921875 0  0.1007781982421876 6.548437499999999 0  0.09922180175781242 6.746874999999999 0  0.1007781982421876 6.945312499999998 0  0 6.647656249999999 0  0 6.84609375 0  0.2 6.647656249999999 0  0.2 6.84609375 0  0 3.27421875 0  0 3.47265625 0  0.2 3.07578125 0  0.2 3.27421875 0  0.1007781982421876 3.3734375 0  0.2 3.47265625 0  0.09922180175781244 4.167187499999999 0  0 4.266406249999999 0  0 4.46484375 0  0.2 4.266406249999999 0  0.1007781982421876 4.365625 0  0.2 4.46484375 0  0 5.060156249999999 0  0.2 5.060156249999999 0  0.1007781982421876 4.564062499999999 0  0.09922180175781242 4.762499999999999 0  0.1007781982421876 4.960937499999998 0  0 4.663281249999999 0  0 4.86171875 0  0.2 4.663281249999999 0  0.2 4.86171875 0  0.2 7.044531249999999 0  0.2 7.242968749999999 0  0 7.044531249999999 0  0 7.242968749999999 0  0.09922180175781239 1.190625 0  0.09922180175781241 3.96875 0  0.09922180175781241 2.778125 0  0.09922180175781195 12.303125 0  0.100778198242188 12.1046875 0  0 12.20390625 0  0 12.40234375 0  0.2 12.20390625 0  0.2 12.40234375 0  0 9.028906249999999 0  0 9.227343749999999 0  0.09922180175781198 9.128125000000001 0  0.09922180175781198 9.3265625 0  0.2 9.028906249999999 0  0.2 9.227343749999999 0  0 8.43359375 0  0.09922180175781198 8.5328125 0  0.2 8.43359375 0  0 9.822656249999998 0  0 10.02109375 0  0.09922180175781198 9.921875 0  0.09922180175781198 10.1203125 0  0.2 9.822656249999998 0  0.2 10.02109375 0  0.09922180175781196 10.9140625 0  0 11.01328125 0  0 11.21171875 0  0.09922180175781198 11.3109375 0  0.2 11.01328125 0  0.2 11.21171875 0  0.09922180175781198 6.1515625 0  0.08672180175781248 12.48896407480315 0  0.07461090087890626 0.2232421875 0  0.1253890991210938 0.0744140625 0  0.05038909912109379 4.3164077878937 0  0.1496109008789064 5.605467212106299 0  0.1496109008789064 8.0867202878937 0  0.05038909912109358 5.1101577878937 0  0.05038909912109338 4.514845287893699 0  0.05038909912109338 6.896095287893699 0  0.05038909912109338 6.499220287893699 0  0.05000000000000002 6.002734375 0  0.05000000000000002 3.819921874999999 0  0.1496109008789064 5.5070327878937 0  0.1499999999999996 7.391796874999998 0  0.05038909912109338 4.911720287893699 0  0.1496109008789069 9.971092212106297 0  0.1496109008789069 9.177342212106298 0  0.05038909912109314 12.0554702878937 0  0.149610900878906 12.2539077878937 0  0.05 12.7 0  0.1374999999999996 12.63779219980315 0  0.1496109008789064 9.772654712106299 0  0.1496109008789064 9.6742202878937 0  0.1496109008789064 8.978904712106299 0  0.1496109008789064 8.880470287893701 0  0.1496109008789064 8.383592212106299 0  0.1496109008789064 
[...]
<PointData  Scalars="sigma (Pa)"> 
<DataArray  type="Float64"  Name="sigma (Pa)"  format="ascii">4.7626859486675242e-02  4.6237813124313493e-02  -4.2031322156947472e-02  -4.5940426751761541e-02  -1.9556209973592797e-05  1.6554210611207971e-08  6.4816284429038401e-08  -5.9010898134973889e-07  5.2778895711819510e-07  3.0102210787327990e-07  -8.7021823603675194e-07  -3.4411754092669016e-06  3.4668503572618298e-07  -4.1257138404224115e-07  1.0083743115922116e-07  9.0001240492540735e-08  -5.1769382649720519e-06  -2.2586503091807282e-06  -6.2291292545448295e-08  -5.6507258460675452e-09  1.0269711856978389e-06  8.6905561903313584e-07  3.1788517361364383e-07  -2.4536027637886816e-04  -2.7773727708333975e-07  3.3920409088435013e-07  6.8378181510791294e-08  -5.3238615322706998e-07  -1.2642223098463610e-04  2.3999920849278367e-07  -1.0932312828182232e-06  -3.0846693912612564e-08  -1.7606260491304904e-06  -2.8545962630048021e-07  5.3628290500306275e-07  1.9757438304940345e-06  7.6322328132359895e-08  -1.4153999977294341e-08  1.1050489304624424e-05  -9.2098406865870504e-04  -2.4560126860031673e-07  -1.2838620778108922e-06  8.1601893575666341e-04  -1.9030372515687807e-05  -5.7887223268836351e-05  5.8238134366928186e-08  3.4114184773312933e-07  -3.2058118965463974e-07  8.5907263342740597e-08  -1.6733937348168423e-07  -2.2767874453579380e-07  -2.9800272587766762e-07  -5.5733548984210498e-08  6.3726029924438881e-07  -1.8438954225851507e-07  -8.0724248432177228e-08  -6.2570723818018614e-07  -7.6703400847876159e-08  3.4201070877925382e-05  5.9754947907761548e-10  1.9178748213260345e-08  3.1024402329930342e-07  4.5482910956185982e-08  5.9457047765052230e-07  4.3992556105353014e-07  2.0637576916577994e-06  4.9373319610681780e-07  -5.0293434253663131e-07  3.6096016853960091e-07  -1.2667229180396443e-06  -1.0118517530547571e-06  -3.1329591617906992e-06  -1.1874562866911018e-04  4.4963748029637816e-07  1.8620221065813152e-06  -8.6641570785265338e-04  -4.5816736239813658e-06  2.9604665889806757e-04  -3.0231964978572054e-07  6.4134420392915168e-07  -1.5661935709875380e-07  1.4216962356159129e-06  1.1289189835127108e-06  3.3100102829520079e-07  9.3899012380232206e-08  -1.0335295162462071e-07  -2.2171318745602140e-07  9.4401547191772398e-07  7.1433953772269999e-07  1.5194725015797268e-06  -2.6934782954021816e-07  2.3114162626438552e-07  -4.8499845737604518e-07  -1.1156014245866993e-07  9.5733932879220182e-07  -4.7943760087082074e-07  1.7723034905967611e-08  5.3228596293480862e-07  -3.6760732707712294e-08  2.1986247661990039e-07  -2.8644387701170028e-07  5.7714940861681514e-07  -8.4786425615153518e-08  5.1311206111365322e-07  5.5504104959031380e-07  3.7488498157960034e-07  2.6429124096517598e-07  -7.8541194582533594e-07  -5.6186636910626376e-08  -2.0030892986028479e-05  -1.7303371021619552e-07  -6.1891163784116295e-05  4.3852743935553279e-07  1.3961972211665322e-07  2.3280415505318099e-07  -5.0330556200961580e-07  1.1661517537114680e-07  2.3635434171333071e-05  -3.0224165696277413e-07  -1.5806575495309370e-06  -1.8702892322169105e-06  -5.7559297331554428e-06  -2.6061048233454290e-04  -4.6372237187738775e-07  2.9005001316421955e-07  -8.2552426546377141e-07  3.2444688446810128e-08  1.8441789121371705e-08  -1.6681693822904343e-06  4.2938461835957705e-07  -6.2284713442598830e-07  1.8355243308671525e-07  -2.2095168451206225e-05  -8.7121903632526800e-07  2.7819512258824159e-07  4.3913470046109778e-07  -9.8834717710782079e-07  2.5038618233734021e-08  -4.9897101778706800e-07  9.4444945298210277e-07  2.3968993585401578e-08  -5.6722820630344774e-07  2.1372791989149693e-07  -1.0706026211535679e-07  -1.0386598214451727e-03  -1.1334372318032794e-03  1.0361210088153684e-04  -1.0763520193227406e-06  2.8873723857832394e-07  -7.1020091577121326e-07  -7.6330784190328324e-08  1.2129096622055958e-07  -9.8780654711357168e-07  7.7504369602125608e-07  -5.3678602387864719e-07  -1.8395113822417656e-07  2.8005896041405473e-04  1.2588360382881398e-06  -6.0016554880930425e-07  1.0314475219575683e-06  -2.5311667945586747e-07  -5.3156342327830055e-05  -2.0389155740533179e-05  1.8098510709224336e-03  1.1646217527205131e-06  4.9048621785477216e-07  -1.2855569879871936e-06  -1.3311042148021054e-05  -2.4063107077706158e-05  -5.0000762213795527e-06  -8.3806891405973701e-06  -7.7831691338686874e-06  -1.2401252399727628e-05  -1.0329668398945557e-06  2.7234520014513878e-08  -5.6578584558882845e-07  1.0106069482270126e-07  9.3972676184117639e-08  4.6237389153932500e-07  1.5460343778509894e-06  -1.5221320860927580e-04  -4.5762196946943664e-05  -1.6241669390387790e-04  1.9420992175146036e-03  -1.8792945969093520e-05  4.3916710851495318e-07  -7.7262683127159068e-07  -7.4317365394141218e-07  2.0001383789200489e-07  -4.9535701007359516e-07  3.1210206113020522e-07  7.8988889948039507e-07  3.1979952730684994e-06  -9.9358940054662309e-08  -6.2115699895015446e-06  1.0208451607899122e-05  3.6587380575589131e-06  -4.5089763796868754e-06  -3.5291493750033709e-05  2.2773293590387116e-05  -1.5076633546706917e-03  -5.1965048678659812e-06  8.9009302578719703e-05  -1.3790863692319129e-03  -5.8534599474383893e-07  2.6644743033421453e-07  -2.5991575726696343e-07  -1.0638808706540527e-06  1.8885118484026310e-07  2.2482161618473154e-07  9.9849117188911598e-08  -1.3126879368853534e-06  3.2147010084689882e-07  -8.4894001506209813e-07  1.4788241281081212e-06  -3.2153016840707913e-07  -1.2989987884675209e-06  -4.8205188396692756e-07  1.3982917286328764e-06  -1.1159649189550750e-07  1.1389636057216768e-07  7.8946627417376687e-07  1.4691653285187929e-07  -1.6666543807149813e-05  -3.0595068425546140e-06  1.6224412144990718e-07  8.6755692323565026e-07  -8.3905225039614740e-07  2.0069017950185849e-07  -2.3411043064392013e-07  -5.0522127838272448e-07  -5.7838235067302810e-07  -8.1761681430502376e-05  4.3925426733163729e-08  -1.9779262936940615e-06  -3.0312926987559393e-07  5.6018516785910564e-07  -3.7737057148713976e-08  7.2272738217571454e-07  -1.4178768741907683e-06  4.9003696733769292e-08  3.0088495196443200e-08  -5.3475782524351739e-05  -2.2581651797720374e-07  -5.0551353359234733e-07  -3.2795597265469366e-07  -1.3309334623645053e-06  3.6338797416665084e-06  4.2450917363010600e-06  9.2980556344577887e-07  1.6218210182504790e-06  4.0783839354059436e-08  1.2485894632543672e-06  1.5152915928073475e-06  1.3135345285584125e-06  -7.2409275566314542e-09  2.8251457528493615e-07  -2.2595503499897153e-07  1.3916106154165109e-06  -8.6371481857596835e-08  -1.5347046788225420e-06  -1.4182190470747549e-07  -8.1998092321486433e-07  7.8668792653147141e-07  8.0628808309170041e-07  1.2512098870813839e-06  -3.3028047146280793e-07  3.6332294759587137e-08  -5.3631050253674237e-07  -4.1788374137107544e-07  4.0913817719050795e-07  -1.4382517515732900e-06  -3.2566344327626405e-07  5.2235665237578965e-08  -2.8793248319285079e-07  2.0977700214061883e-06  9.5522592528681287e-07  1.4745374410513840e-06  3.4094347316301481e-07  9.7917847485878673e-07  -2.8325787461739934e-08  7.2005337496915366e-07  6.1071519688531142e-07  -1.3171771180870084e-07  1.7023986198418101e-04  -2.5103561198021227e-07  1.9571917074920719e-07  -1.8587060096647443e-05  -4.7728720013888730e-04  7.8119965536992849e-05  -4.9908137069133989e-04  -4.7975641527028850e-04  -5.3659121900666105e-05  -4.8649366214214283e-07  -2.8009974411509319e-07  -3.3789931851295716e-05  -4.9365337705738102e-04  9.9393925811876887e-07  -4.4750790029784814e-04  -4.7757992939781061e-04  8.8606520986640542e-07  -5.5368565106168965e-07  5.2343356304117420e-07  -7.7833233263169197e-08  1.0072235788883015e-07  -6.7245487993195036e-07  5.1715255319735967e-07  -3.0855647322917797e-07  -2.5113863127623869e-10  8.2631658501043995e-07  -1.6986889372558233e-07  4.7019605912316951e-07  4.5128330530182095e-07  8.3978935499610028e-07  1.5782617104982422e-06  -1.3792576972418222e-07  -4.7394976872053664e-09  3.1159232525586262e-08  -4.1669313141120019e-05  -2.5230329336180540e-05  -5.5331854152092603e-06  -1.8262412124828956e-05  -5.6891518234406443e-06  -6.4625282722908165e-06  -1.8026414180233065e-05  8.2548055146655754e-08  1.0635099154963165e-08  -2.5997023388045629e-05  -4.5003829297983918e-05  -5.1872432084246959e-07  -2.4308007055149232e-07  3.4950628688880177e-07  4.0314482776817834e-07  3.5338217281246823e-07  9.3481529330149622e-07  4.1107436550278222e-08  2.0350500093459325e-06  2.3614130265643127e-07  -2.7622033331785299e-07  -2.3573764542789240e-07  7.3222780145337333e-07  -2.0972923793260870e-05  -3.6531403591223222e-04  1.7431154656544960e-06  -4.9894334911165260e-06  1.4452670656598055e-04  -3.8094567238014781e-07  -1.2541583071826885e-06  1.0713846530482798e-06  8.2130778958273957e-07  -8.7632523230369409e-05  8.0468699001722856e-04  1.6244468130473654e-07  -9.1237739535754314e-08  1.0818521598275555e-07  1.5473142293571421e-07  1.1886139296466003e-06  -6.5326645841699182e-07  9.6503158657147014e-07  -1.5616381816785341e-06  -2.7591417631421702e-06  -1.6564501854342514e-07  4.0964657974839987e-07  3.3654863359232908e-07  -7.5127120426466852e-07  -7.1644307690671586e-07  -1.0249050586346859e-07  4.6415838874363238e-07  8.4536937600622534e-07  -2.3427217851756405e-06  -4.5617005221107163e-07  2.4801385516937601e-07  4.4251895745773522e-07  -3.8229803513252943e-08  -4.9812805678326869e-07  3.7832546531661703e-08  1.3242034754067802e-07  1.7609683783389699e-06  -9.7922085190785459e-07  -2.3918137834816677e-06  -3.9091867547799977e-07  1.4063226149851172e-08  1.2084636346869836e-07  2.6855472164839433e-07  -6.3126027045073702e-06  -6.1469639950588134e-06  -4.3506674518192912e-06  8.5237271269872597e-05  1.3944851493289558e-06  -4.4485484971006101e-05  -6.4117607290896537e-06  5.1785147162522460e-04  4.1137801059789049e-07  -4.2520428937173952e-06  -1.3280401144715603e-06  -3.7409283171817061e-06  6.0796669258480047e-07  -1.9702561220930732e-04  -2.1404224067369184e-04  -3.3536201334764038e-07  8.6059984140202155e-07  -4.8353530807018364e-07  -3.8743798169742222e-07  1.5313640871109610e-07  8.2281217398010396e-03  -3.0057052021635857e-05  8.2581295310459827e-07  -2.2932801362994750e-07  -1.1841466165581016e-07  -1.0609002177616786e-06  3.0480790401439210e-07  -1.6051717133018812e-06  3.3415677528091183e-07  7.5059287273642467e-07  3.2021723362822397e-07  -1.2581636116368844e-06  -5.2767912513822606e-07  -4.2211189020694150e-08  -2.8992979425315369e-07  -4.7397488230058135e-06  -5.6916793222442166e-05  4.9145741216501346e-08  2.3002617971940995e-07  3.3520014540182818e-07  6.7568733514125561e-07  1.1277765939552803e-06  -8.0348325503553064e-07  -8.8351845199004737e-07  -1.2573975937791645e-06  -1.5911785889507170e-07  1.5394833214075152e-06  -3.5607687935291438e-07  3.0380884440675163e-07  -2.6354505074496150e-07  8.9677552088810850e-07  -1.4531010916628024e-07  3.4994259021867605e-07  -8.1063402111556439e-07  -3.1980427505048361e-04  -2.6796756563070620e-04  -1.2032687970482167e-03  -3.3858170070181327e-04  -1.0439059204038337e-06  -4.0608625661802073e-07  3.0283560226835433e-04  -6.7129209566733708e-07  -3.7159361971117470e-09  -9.4112671369797182e-05  -1.7092823423473371e-06  -6.1565782815123498e-05  -1.0576627777143226e-06  -2.0502405516211249e-05  -7.4207706137882169e-07  -1.0710236435299219e-06  8.2317086988305176e-07  7.2988532222425399e-07  -8.3933952695727034e-07  1.7630106002624067e-07  6.2956027908371088e-07  -2.6376498374206328e-07  4.4039774309707423e-07  7.1158263601441493e-03  1.8657532620039927e-07  1.3593623183858715e-06  2.4967200649197702e-07  6.2557152066648281e-07  5.1455655495958390e-07  -4.5901527221451458e-07  -1.4705831924762001e-07  4.7708200097198945e-07  1.8118836219891162e-07  -8.0069069556220111e-07  1.0024536157327118e-06  -5.0842413799430749e-07  -4.9110037667819658e-08  2.3548899752602860e-07  1.4345245724272741e-06  7.4879451210531609e-07  7.4852906686235238e-07  4.5111709979415569e-07  -6.1493738676785974e-07  -7.6327009956697148e-07  1.0270706929059766e-07  -1.2350565380053911e-06  -8.5032141727699831e-07  -5.5881320048268117e-07  2.6988474459414219e-07  5.8467326280300541e-08  6.5924577330720445e-07  -5.3492047195366719e-06  2.8637179326979168e-07  2.7928591271691175e-04  -1.7733611203822531e-06  -9.2921865774202723e-05  7.3707013500190676e-07  -1.3516789123570003e-06  -4.8559862176612454e-04  -1.8990261929296550e-05  -2.2586747971916968e-05  -3.4833322235374509e-05  -6.9326999165748777e-06  -2.4025360395609817e-05  -8.1361624310576214e-05  5.7152292807650647e-04  -6.5506679354479880e-07  -2.0691148139098897e-07  1.0833486816046786e-06  -1.4445568253841712e-06  -5.9976048991098901e-07  1.6449707125451978e-06  -1.4733314235141362e-06  7.0658861983690905e-07  9.7681494678149051e-07  -4.8741798152898149e-07  -3.3568779328176602e-08  1.1124685462272583e-06  -7.3912781050983064e-07  -1.1013795262597457e-05  -1.2605904731121731e-06  -8.5554419156924977e-07  -8.8995768210233197e-08  -2.9944665933187015e-05  -5.5703668456752623e-06  7.4186440836629802e-08  5.1010069994518097e-07  -4.6215770272699041e-07  1.5996848322983715e-06  3.4118753010122322e-08  -4.0356829287995823e-07  1.1232403577907869e-06  7.0908018016567992e-08  1.9061902502618936e-07  -4.1191527806342685e-05  -1.0831742200546048e-06  1.3413122274870720e-07  2.8363208666523771e-07  1.4953123559346239e-06  8.1913060499700158e-07  1.4279536909672477e-06  5.3359175576369985e-07  2.4362123026723892e-07  -1.7364847878683882e-07  -1.7986201364856293e-07  1.1286234177897293e-06  -1.6167801018287886e-03  4.7994840215167993e-03  -1.2841357699646041e-05  -7.2203012441603687e-06  -1.7253755377990286e-07  4.6774864184984381e-07  -2.5724001268868504e-07  -1.0680588134621621e-06  -5.5753857660487428e-06  -1.2461220706306167e-06  -2.4586729948812272e-06  -2.0161934432404950e-06  -7.4732850475863854e-06  -4.4137442346147688e-05  1.7278652551439135e-07  5.3184128838334890e-04  6.5276489081885452e-07  7.7311581953181636e-07  -1.3322405056291174e-05  -4.5127122864570393e-04  -1.1267314908474414e-03  -6.8469497665899821e-06  -1.1971818029964335e-05  -8.8448237853955394e-05  -2.7734071141664553e-04  -1.7699574506255559e-03  -4.8037191369594700e-07  6.2634657411667128e-07  2.1017599598284727e-07  8.8956241420327557e-07  5.2445334673735279e-03  -7.0701020468898465e-06  2.6657548427535540e-07  7.3533786896965898e-07  2.7653325034893928e-07  -4.6805650058582533e-07  3.1331041032956294e-07  7.5136292351689253e-07  4.7306128252367552e-08  -8.4627572013685285e-07  -7.7078888206263078e-07  4.3566039442144582e-07  5.4184468701574830e-07  -2.6108855516577461e-06  8.6918638307667133e-07  2.5455901181313451e-07  -6.9518818591777476e-07  -2.6662955750006409e-07  -2.8860467338735451e-07  -8.1231569744049876e-07  -2.1652273031059376e-05  -6.1684794365714464e-06  -5.2048496795524535e-07  -5.1284854978579916e-07  -4.1356462007000752e-07  -4.4413906085452192e-07  -1.7368493143027859e-06  6.7508009083123694e-07  -1.1560677678336158e-06  6.8260100309457639e-07  -2.8286893952919401e-07  -8.7703443354069935e-07  1.1767474540370641e-07  -4.0776399683567644e-07  -4.4093739761144567e-07  -5.3905501934627199e-07  8.2956238941948895e-07  1.1211682025196744e-06  6.2829326748296211e-07  4.0914238592171774e-07  6.6780453355012896e-07  -5.7107190973133299e-07  1.9803019189172684e-06  -1.6131726034562425e-07  -1.3013283911955935e-05  -1.8409562516467349e-06  -2.3661644297100401e-06  -3.8044221761273213e-07  -1.2114213734458920e-08  -8.5237942715193859e-06  3.2305853294323620e-07  -3.2531093599829504e-05  -1.1232618098476448e-05  -2.3709287028689681e-05  5.4421239979106427e-04  -5.8495309685890445e-07  -4.4941756107698492e-07  -3.8290727202981941e-07  1.5119291874105172e-07  6.5998688457906965e-08  -6.5249952641319514e-07  8.9692788226112371e-07  1.1080799028797006e-06  8.5949848024489579e-05  -1.3209593026304947e-04  -3.3679072330427089e-05  1.5527157533099391e-05  1.3145398805417933e-06  4.4676397828403692e-06  -1.3173246203474809e-06  7.8639884904170400e-06  3.2267355800479785e-05  -7.8883751948233074e-05  -6.7485615663942554e-03  -2.0461141156378699e-05  1.3710687385077363e-07  5.9297216138566776e-07  8.5439211180256014e-05  1.2175796057868222e-04  4.7466326940283707e-04  2.9025730141319232e-07  5.7229902807842323e-04  -1.2600988613908053e-06  -2.4731342540434748e-07  -7.4443955877887356e-03  2.1626317550767693e-07  -5.3493312346258368e-08  -9.5447878286912551e-07  -1.0144598959750072e-06  -1.3479148673589417e-07  -2.7918469422756665e-07  8.3341086705951663e-07  1.5091060713346862e-06  -3.1735276132967039e-07  2.2131705374123284e-07  -1.6808125058959951e-07  -1.2323106920850666e-05  -3.6006450554670713e-06  9.5796992823219963e-07  -2.9213221078034766e-08  -3.6859416047658436e-04  -1.4736814626751586e-04  5.5242499972045970e-07  -3.8867609809172021e-07  7.4714254233058167e-07  -5.7317826086561070e-07  1.2630616183276744e-06  -9.7201400086051637e-07  4.4281577048589627e-07  -1.3303339493622002e-04  -6.3777357839023997e-07  2.8014171484306533e-07  -1.2864711616716624e-07  6.2002309124270538e-04  -2.6123287008016759e-05  -1.8192503440298511e-07  2.6929501852425722e-07  -2.5573094953670313e-07  1.2926866640071545e-08  7.4753855472468193e-07  4.2574793669890504e-08  -3.5376414194141629e-07  -6.6364690701949276e-07  5.0707383125822427e-07  -2.7285978310621330e-07  -2.8727065635316638e-04  -1.6930096631648620e-06  -1.3088447302255532e-05  -1.5611732975368282e-07  -1.0767718503147521e-06  -1.0117325301944192e-05  8.8982194069865396e-07  9.6091918397196248e-07  2.6058356204385193e-06  1.3029513566742634e-06  7.1183456603355851e-04  -8.0307349842694106e-06  -7.8287993732333399e-07  -6.6623960219469809e-06  -2.8170676700311363e-05  -1.5861505291152873e-07  -2.5595329899314344e-07  -4.0262955603002401e-07  -2.0118250383568451e-07  -4.6073351321453969e-07  -4.2064111879104246e-08  3.8560678503161154e-07  -8.4686545377764013e-07  -1.2084496656318787e-05  -1.4447182158926695e-05  -1.8958287333871109e-07  -6.9236972118505827e-07  3.2891446549138790e-07  -4.0567055238537553e-07  -1.0669321227817416e-03  -3.5271284024849255e-05  2.2935339770037561e-07  -5.0749359060791865e-06  -2.0511731980263356e-05  1.3951488211219689e-06  -4.6786817999014211e-07  -4.7823738069118280e-05  -8.2136089327547966e-04  -9.6552811918875175e-04  -7.5850167505221895e-04  7.6000413667116794e-07  -8.6525833815809149e-08  1.0634747079700680e-06  1.2519926506080462e-07  -4.7877339388552533e-08  1.2091450004979104e-07  -9.8066615615702703e-07  2.0547905426987189e-07  2.5451065987370557e-07  1.4720025197686426e-07  -9.7681106163601577e-07  2.6953650062899319e-07  1.7610971062009593e-06  7.1709900812785368e-07  4.1777912131883730e-07  -2.6759468327365074e-05  -1.8751361320897722e-05  2.4434306974646345e-07  2.4053351780130735e-07  -6.4650064628312107e-07  6.3292417626295337e-07  7.9302364133385599e-07  2.8754180642089610e-07  -1.6264708682943539e-06  -1.4312466750019361e-06  3.5502371655433414e-07  7.1948928731400639e-07  -7.4491735242617362e-07  -7.6812942565737159e-07  5.5656523628542098e-07  -7.0107095497425069e-09  -2.8872559496533261e-05  -9.1926430594251865e-05  1.8971114774191460e-03  -3.3249357869176468e-06  -1.1215483496702558e-06  -8.2022050842865856e-07  -5.1909208598299996e-07  -3.5097928860149081e-05  -1.7691902250818028e-06  8.3538061956142824e-07  -3.2463002083084759e-04  -9.7492358067611678e-06  -2.6212044276484951e-07  -1.1181756384645811e-08  8.3377589844390476e-07  -1.3302463707875878e-06  1.0327837620331347e-06  1.0495150255782923e-06  8.5933324238900122e-07  7.4883562672698687e-07  4.6419032583090977e-07  1.3926624997844828e-07  9.7393184631691548e-07  -8.9841596490823398e-07  6.0615367616509255e-07  -1.4900144314015684e-06  7.1445565262940949e-07  1.6529205615098688e-06  -1.8388179955418699e-07  5.6512222881930834e-07  6.4662461945295683e-07  2.4636364898492989e-06  -3.6026296130921083e-07  -2.2361990703107490e-06  -1.6738020570139982e-06  9.1500345798731131e-07  3.4557157475453709e-07  -3.4274139742002464e-08  -9.5231098758615068e-08  5.8915597211470834e-07  -7.21753558767446