<?xml version="1.0"?>
<VTKFile type="UnstructuredGrid"  version="0.1"  >
<UnstructuredGrid>
<Piece  NumberOfPoints="16808" NumberOfCells="31534">
<Points>
<DataArray  type="Float64"  NumberOfComponents="3"  format="ascii">0 12.7 0  0 0 0  0.2 0 0  0.2 12.7 0  0.2 6.35 0  0 6.35 0  0 3.175 0  0.2 3.175 0  0 9.524999999999999 0  0.2 9.524999999999999 0  0 11.1125 0  0.2 11.1125 0  0.2 1.5875 0  0 1.5875 0  0.2 4.762499999999999 0  0 4.762499999999999 0  0.2 7.937499999999999 0  0 7.937499999999999 0  0.2 10.31875 0  0 10.31875 0  0.2 11.90625 0  0 11.90625 0  0 5.556249999999999 0  0.2 5.556249999999999 0  0 0.79375 0  0.2 0.79375 0  0 2.38125 0  0.2 2.38125 0  0.2 7.143749999999999 0  0 7.143749999999999 0  0 8.731249999999999 0  0.2 8.731249999999999 0  0 3.96875 0  0.2 3.96875 0  0.2 11.509375 0  0 11.509375 0  0 10.715625 0  0.2 10.715625 0  0 7.540624999999999 0  0.2 7.540624999999999 0  0.2 2.778125 0  0 2.778125 0  0.2 5.159374999999999 0  0 5.159374999999999 0  0.2 5.953125 0  0 5.953125 0  0.2 8.334375 0  0 8.334375 0  0.2 0.396875 0  0 0.396875 0  0 1.190625 0  0.2 1.190625 0  0.2 3.571874999999999 0  0 3.571874999999999 0  0.2 4.365625 0  0 4.365625 0  0.2 1.984375 0  0 1.984375 0  0.2 6.746874999999999 0  0 6.746874999999999 0  0.2 9.128124999999999 0  0 9.128124999999999 0  0.2 9.921874999999998 0  0 9.921874999999998 0  0 12.303125 0  0.2 12.303125 0  0 11.7078125 0  0.2 11.7078125 0  0.2 10.5171875 0  0 10.5171875 0  0.2 8.135937499999999 0  0 8.135937499999999 0  0.2 5.754687499999999 0  0 5.754687499999999 0  0 5.3578125 0  0.2 5.3578125 0  0 7.739062499999999 0  0.2 7.739062499999999 0  0 3.770312499999999 0  0.2 3.770312499999999 0  0.2 1.3890625 0  0 1.3890625 0  0.2 2.579687499999999 0  0 2.579687499999999 0  0 2.9765625 0  0.2 2.9765625 0  0 4.1671875 0  0.2 4.1671875 0  0 0.1984375 0  0.2 0.1984375 0  0 0.5953124999999999 0  0.2 0.5953124999999999 0  0.2 1.7859375 0  0 1.7859375 0  0 2.1828125 0  0.2 2.1828125 0  0.2 0.9921874999999999 0  0 0.9921874999999999 0  0.2 12.1046875 0  0 12.1046875 0  0.2 12.5015625 0  0 12.5015625 0  0 9.723437499999999 0  0.2 9.723437499999999 0  0 8.9296875 0  0.2 8.9296875 0  0 9.326562499999998 0  0.2 9.326562499999998 0  0 6.548437499999999 0  0.2 6.548437499999999 0  0 6.945312499999999 0  0.2 6.945312499999999 0  0 3.3734375 0  0.2 3.3734375 0  0 8.532812499999999 0  0.2 8.532812499999999 0  0 6.1515625 0  0.2 6.1515625 0  0 4.564062499999999 0  0.2 4.564062499999999 0  0 4.960937499999999 0  0.2 4.960937499999999 0  0.2 7.342187499999999 0  0 7.342187499999999 0  0 10.1203125 0  0.2 10.1203125 0  0.2 10.9140625 0  0 10.9140625 0  0 11.3109375 0  0.2 11.3109375 0  0.1 10.81484375 0  0.1 12.00546875 0  0.1 5.85390625 0  0.1 8.235156249999999 0  0.1 8.632031249999999 0  0.1 8.83046875 0  0.1 9.425781249999998 0  0.1 9.624218749999999 0  0.1 10.21953125 0  0.1 10.41796875 0  0.1 10.61640625 0  0.1 11.60859375 0  0.1 11.80703125 0  0.1 11.41015625 0  0.1 5.258593749999999 0  0.1 7.639843749999999 0  0.1 12.7 0  0.1 4.067968749999999 0  0.1 2.87734375 0  0.09999999999999999 2.67890625 0  0.1 3.86953125 0  0.1 1.88515625 0  0.1 0.6945312499999999 0  0.1 1.28984375 0  0.1 1.48828125 0  0.1 2.08359375 0  0.1 0 0  0.1 0.29765625 0  0.1 0.8929687499999999 0  0.09999999999999999 1.09140625 0  0.1 0.4960937499999999 0  0.1 7.242968749999999 0  0.1 4.861718749999999 0  0.1 5.060156249999999 0  0.1 4.464843749999999 0  0.1 4.663281249999999 0  0.09999999999999999 3.47265625 0  0.1 6.846093749999999 0  0.1 7.044531249999999 0  0.1 6.449218749999999 0  0.1 6.647656249999999 0  0.09999999999999999 6.250781249999999 0  0.1 6.05234375 0  0.09999999999999996 1.68671875 0  0.1 4.266406249999999 0  0.1 3.07578125 0  0.09999999999999999 2.28203125 0  0.09999999999999996 2.48046875 0  0.1 3.671093749999999 0  0.1 3.27421875 0  0.09999999999999999 5.457031249999999 0  0.09999999999999996 5.65546875 0  0.09999999999999999 7.441406249999999 0  0.09999999999999999 7.838281249999999 0  0.09999999999999996 8.036718749999999 0  0.1 11.21171875 0  0.1 11.01328125 0  0.1 10.02109375 0  0.1 8.43359375 0  0.1 9.227343749999999 0  0.1 9.02890625 0  0.1 9.82265625 0  0.1 12.40234375 0  0.1 12.20390625 0  0.1 12.5755843996063 0  0 0.09921874999999999 0  0.2 0.09921874999999999 0  0.09999999999999999 0.148828125 0  0.09922180175781284 7.143749999999999 0  0 7.639843749999999 0  0.2 7.639843749999999 0  0 5.258593749999999 0  0.1007781982421872 5.159374999999999 0  0.2 5.258593749999999 0  0.09922180175781285 11.90625 0  0.09922180175781285 11.509375 0  0.1007781982421872 11.7078125 0  0 11.41015625 0  0 11.60859375 0  0.2 11.41015625 0  0.2 11.60859375 0  0.09922180175781285 10.715625 0  0.1007781982421872 10.5171875 0  0.1007781982421872 10.31875 0  0 10.41796875 0  0.2 10.41796875 0  0 10.21953125 0  0.2 10.21953125 0  0.1007781982421872 9.524999999999999 0  0 9.624218749999999 0  0.2 9.624218749999999 0  0 9.425781249999998 0  0.2 9.425781249999998 0  0.1007781982421872 5.953125 0  0.09922180175781285 8.135937499999999 0  0.1007781982421872 8.731249999999999 0  0 8.83046875 0  0.2 8.83046875 0  0 8.632031249999999 0  0.2 8.632031249999999 0  0.2 8.235156249999999 0  0 8.235156249999999 0  0.2 5.85390625 0  0 5.85390625 0  0 11.80703125 0  0 12.00546875 0  0.2 11.80703125 0  0.2 12.00546875 0  0 10.61640625 0  0 10.81484375 0  0.2 10.61640625 0  0.2 10.81484375 0  0.09922180175781287 5.556249999999999 0  0.1007781982421872 11.1125 0  0.09922180175781285 8.334375 0  0.09922180175781285 8.9296875 0  0.09922180175781285 9.723437499999999 0  0.2 12.60078125 0  0 12.60078125 0  0.1007781982421874 1.984375 0  0.1007781982421874 1.3890625 0  0 2.67890625 0  0 2.87734375 0  0.1007781982421874 2.5796875 0  0.2 2.67890625 0  0.2 2.87734375 0  0 3.86953125 0  0 4.067968749999999 0  0.1007781982421874 3.7703125 0  0.2 3.86953125 0  0.2 4.067968749999999 0  0.09922180175781263 2.9765625 0  0 2.08359375 0  0.2 2.08359375 0  0.2 1.48828125 0  0 1.48828125 0  0 1.28984375 0  0.2 1.28984375 0  0 0.6945312499999999 0  0.2 0.6945312499999999 0  0.2 1.88515625 0  0 1.88515625 0  0.09922180175781251 0.9921874999999999 0  0.1007781982421875 0.5953124999999999 0  0 0.29765625 0  0.2 0.29765625 0  0.1007781982421875 0.396875 0  0 0.4960937499999999 0  0.2 0.4960937499999999 0  0.2 1.09140625 0  0 1.09140625 0  0.1007781982421876 0.7937499999999998 0  0 0.8929687499999999 0  0.2 0.8929687499999999 0  0.1007781982421876 7.937499999999998 0  0 8.036718749999999 0  0.2 8.036718749999999 0  0 7.83828125 0  0.2 7.83828125 0  0.1007781982421876 7.739062499999999 0  0.09922180175781239 7.540624999999999 0  0.2 7.441406249999998 0  0.09922180175781239 7.3421875 0  0 7.441406249999998 0  0 5.655468749999999 0  0.09922180175781239 5.754687499999999 0  0.2 5.655468749999999 0  0 5.45703125 0  0.2 5.45703125 0  0.1007781982421876 5.3578125 0  0.1007781982421876 3.175 0  0.09922180175781241 3.571874999999999 0  0 3.671093749999999 0  0.2 3.671093749999999 0  0.1007781982421876 2.38125 0  0 2.48046875 0  0.2 2.48046875 0  0 2.28203125 0  0.2 2.28203125 0  0.1007781982421876 2.1828125 0  0 3.07578125 0  0.09922180175781242 1.5875 0  0 1.68671875 0  0.09922180175781239 1.7859375 0  0.2 1.68671875 0  0 6.05234375 0  0 6.250781249999999 0  0 6.44921875 0  0.2 6.05234375 0  0.2 6.250781249999999 0  0.1007781982421876 6.349999999999999 0  0.2 6.44921875 0  0.1007781982421876 6.548437499999999 0  0.09922180175781242 6.746874999999999 0  0.1007781982421876 6.945312499999998 0  0 6.647656249999999 0  0 6.84609375 0  0.2 6.647656249999999 0  0.2 6.84609375 0  0 3.27421875 0  0 3.47265625 0  0.2 3.07578125 0  0.2 3.27421875 0  0.1007781982421876 3.3734375 0  0.2 3.47265625 0  0.09922180175781244 4.167187499999999 0  0 4.266406249999999 0  0 4.46484375 0  0.2 4.266406249999999 0  0.1007781982421876 4.365625 0  0.2 4.46484375 0  0 5.060156249999999 0  0.2 5.060156249999999 0  0.1007781982421876 4.564062499999999 0  0.09922180175781242 4.762499999999999 0  0.1007781982421876 4.960937499999998 0  0 4.663281249999999 0  0 4.86171875 0  0.2 4.663281249999999 0  0.2 4.86171875 0  0.2 7.044531249999999 0  0.2 7.242968749999999 0  0 7.044531249999999 0  0 7.242968749999999 0  0.09922180175781239 1.190625 0  0.09922180175781241 3.96875 0  0.09922180175781241 2.778125 0  0.09922180175781195 12.303125 0  0.100778198242188 12.1046875 0  0 12.20390625 0  0 12.40234375 0  0.2 12.20390625 0  0.2 12.40234375 0  0 9.028906249999999 0  0 9.227343749999999 0  0.09922180175781198 9.128125000000001 0  0.09922180175781198 9.3265625 0  0.2 9.028906249999999 0  0.2 9.227343749999999 0  0 8.43359375 0  0.09922180175781198 8.5328125 0  0.2 8.43359375 0  0 9.822656249999998 0  0 10.02109375 0  0.09922180175781198 9.921875 0  0.09922180175781198 10.1203125 0  0.2 9.822656249999998 0  0.2 10.02109375 0  0.09922180175781196 10.9140625 0  0 11.01328125 0  0 11.21171875 0  0.09922180175781198 11.3109375 0  0.2 11.01328125 0  0.2 11.21171875 0  0.09922180175781198 6.1515625 0  0.08672180175781248 12.48896407480315 0  0.07461090087890626 0.2232421875 0  0.1253890991210938 0.0744140625 0  0.05038909912109379 4.3164077878937 0  0.1496109008789064 5.605467212106299 0  0.1496109008789064 8.0867202878937 0  0.05038909912109358 5.1101577878937 0  0.05038909912109338 4.514845287893699 0  0.05038909912109338 6.896095287893699 0  0.05038909912109338 6.499220287893699 0  0.05000000000000002 6.002734375 0  0.05000000000000002 3.819921874999999 0  0.1496109008789064 5.5070327878937 0  0.1499999999999996 7.391796874999998 0  0.05038909912109338 4.911720287893699 0  0.1496109008789069 9.971092212106297 0  0.1496109008789069 9.177342212106298 0  0.05038909912109314 12.0554702878937 0  0.149610900878906 12.2539077878937 0  0.05 12.7 0  0.1374999999999996 12.63779219980315 0  0.1496109008789064 9.772654712106299 0  0.1496109008789064 9.6742202878937 0  0.1496109008789064 8.978904712106299 0  0.1496109008789064 8.880470287893701 0  0.1496109008789064 8.383592212106299 0  0.1496109008789064 
[...]
<PointData  Scalars="sigma (Pa)"> 
<DataArray  type="Float64"  Name="sigma (Pa)"  format="ascii">4.7625693513291587e-02  4.6236681156760683e-02  -4.2030293170293921e-02  -4.5939302064652202e-02  -1.9555731919807621e-05  1.6553174417428899e-08  6.4815331877036282e-08  -5.9009419998247701e-07  5.2777636828890683e-07  3.0101489116622225e-07  -8.7019710559078074e-07  -3.4410909139614827e-06  3.4667672461433394e-07  -4.1256119366816661e-07  1.0083472918759044e-07  8.9999356422960190e-08  -5.1768112865649775e-06  -2.2585951832750141e-06  -6.2289824434730813e-08  -5.6505563893049555e-09  1.0269460838500296e-06  8.6903435437509537e-07  3.1787730276155911e-07  -2.4535426892298797e-04  -2.7773041189866511e-07  3.3919580402858794e-07  6.8376749618782271e-08  -5.3237363368819324e-07  -1.2641913892055267e-04  2.3999303226017158e-07  -1.0932045948503098e-06  -3.0845958025205269e-08  -1.7605837428671047e-06  -2.8545239448667772e-07  5.3626989980836020e-07  1.9756955124992935e-06  7.6320228267434881e-08  -1.4153530466772393e-08  1.1050218999642478e-05  -9.2096152123204839e-04  -2.4559523365050886e-07  -1.2838308097066164e-06  8.1599895874280473e-04  -1.9029906560879209e-05  -5.7885807209552000e-05  5.8236645239525873e-08  3.4113274765749625e-07  -3.2057295184189180e-07  8.5905140418768436e-08  -1.6733526235305276e-07  -2.2767316484898601e-07  -2.9799530319388251e-07  -5.5732466150940334e-08  6.3724425612521470e-07  -1.8438498066668121e-07  -8.0722050051573688e-08  -6.2569142982960051e-07  -7.6701837651678098e-08  3.4200234038899173e-05  5.9814816518569847e-10  1.9178189502508148e-08  3.1023611432175959e-07  4.5481779830281755e-08  5.9455602505591712e-07  4.3991478465492023e-07  2.0637071701606985e-06  4.9372121608837584e-07  -5.0292200948752229e-07  3.6095160773821554e-07  -1.2666918428452113e-06  -1.0118271653853307e-06  -3.1328827726338215e-06  -1.1874272159554597e-04  4.4962695676104826e-07  1.8619763210159139e-06  -8.6639449692989278e-04  -4.5815612326827402e-06  2.9603941146493727e-04  -3.0231311915527172e-07  6.4132868093817609e-07  -1.5661573558102598e-07  1.4216614383543761e-06  1.1288915165986135e-06  3.3099261915423332e-07  9.3897039301302834e-08  -1.0335073381842038e-07  -2.2170803664610870e-07  9.4399262496989551e-07  7.1432204651791482e-07  1.5194353049227852e-06  -2.6934125195541583e-07  2.3113598106339522e-07  -4.8498673082284534e-07  -1.1155741993644168e-07  9.5731558586571322e-07  -4.7942570388808416e-07  1.7722528328673848e-08  5.3227291313545462e-07  -3.6759837528802713e-08  2.1985706220494846e-07  -2.8643686287754589e-07  5.7713526808082566e-07  -8.4783731131936145e-08  5.1309958953931795e-07  5.5502647270413201e-07  3.7487574252864098e-07  2.6428454700110205e-07  -7.8539270960157143e-07  -5.6185701702525545e-08  -2.0030402096796776e-05  -1.7303038028065149e-07  -6.1889648873316938e-05  4.3851618512310704e-07  1.3961609109044280e-07  2.3279832237694924e-07  -5.0329370670039031e-07  1.1661216095883359e-07  2.3634856039696927e-05  -3.0223329308000698e-07  -1.5806189723372264e-06  -1.8702432699891912e-06  -5.7557890912883431e-06  -2.6060410153132431e-04  -4.6371134000824354e-07  2.9004346017087511e-07  -8.2550389796443682e-07  3.2443777361030139e-08  1.8441467381329699e-08  -1.6681287309106371e-06  4.2937389198881982e-07  -6.2283191314939113e-07  1.8354796128201651e-07  -2.2094627661730759e-05  -8.7119748501745502e-07  2.7818883862299681e-07  4.3912319741885910e-07  -9.8832241534225745e-07  2.5038133779535329e-08  -4.9895843803090983e-07  9.4442629924783434e-07  2.3968051984132416e-08  -5.6721441130737208e-07  2.1372269568394421e-07  -1.0705778286339880e-07  -1.0386343935729792e-03  -1.1334094835464374e-03  1.0360956430984068e-04  -1.0763257420785879e-06  2.8873015954941306e-07  -7.1018383647261740e-07  -7.6328662320548806e-08  1.2128788590735085e-07  -9.8778236533988634e-07  7.7502483369427741e-07  -5.3677277333998654e-07  -1.8394670989647281e-07  2.8005210417098134e-04  1.2588052251404386e-06  -6.0015088441188037e-07  1.0314223484245464e-06  -2.5311048373595254e-07  -5.3155041217700451e-05  -2.0388656894675511e-05  1.8098067629746981e-03  1.1645930910651911e-06  4.9047406533200743e-07  -1.2855261558122003e-06  -1.3310717361795139e-05  -2.4062518126593734e-05  -4.9999541661052341e-06  -8.3804840704262749e-06  -7.7829789132848673e-06  -1.2400949154363570e-05  -1.0329415684320981e-06  2.7233858981695134e-08  -5.6577180931743911e-07  1.0105795559947158e-07  9.3970399115860070e-08  4.6236261652852943e-07  1.5459960381846779e-06  -1.5220948252157499e-04  -4.5761075857294490e-05  -1.6241271840423095e-04  1.9420516717462771e-03  -1.8792486460067516e-05  4.3915632221586737e-07  -7.7260798817857222e-07  -7.4315513650886884e-07  2.0000961338340719e-07  -4.9534448014506375e-07  3.1209422628847768e-07  7.8986972749385391e-07  3.1979169800083069e-06  -9.9356516231726098e-08  -6.2114179223104079e-06  1.0208201690348324e-05  3.6586484841885255e-06  -4.5088659930010070e-06  -3.5290629442382218e-05  2.2772736160915309e-05  -1.5076264452532034e-03  -5.1963779996244262e-06  8.9007123537731067e-05  -1.3790526058652481e-03  -5.8533169778773432e-07  2.6644078036316148e-07  -2.5990937556312758e-07  -1.0638547501084254e-06  1.8884656220373307e-07  2.2481631527947698e-07  9.9846673524007892e-08  -1.3126560367978128e-06  3.2146222030389692e-07  -8.4891949099784527e-07  1.4787876163592992e-06  -3.2152271972865385e-07  -1.2989671248323337e-06  -4.8203998237942744e-07  1.3982569658271115e-06  -1.1159356117912335e-07  1.1389395228703610e-07  7.8944633388429822e-07  1.4691263966295247e-07  -1.6666136005054484e-05  -3.0594311459740613e-06  1.6223954154502484e-07  8.6753541110427174e-07  -8.3903196643047014e-07  2.0068586263264701e-07  -2.3410408356212142e-07  -5.0520941301233682e-07  -5.7836816202253315e-07  -8.1759680702626333e-05  4.3924601162281970e-08  -1.9778778383383355e-06  -3.0312180523336818e-07  5.6017151672853924e-07  -3.7736167874883124e-08  7.2270960223460883e-07  -1.4178423780516451e-06  4.9002669336419367e-08  3.0087740579937553e-08  -5.3474473213508936e-05  -2.2581101419572844e-07  -5.0550092926693963e-07  -3.2794807339127598e-07  -1.3309009689686308e-06  3.6337907800350018e-06  4.2449878094142831e-06  9.2978260529936154e-07  1.6217813374329292e-06  4.0782675910354041e-08  1.2485582218010291e-06  1.5152540783824748e-06  1.3135025187963184e-06  -7.2409221885718184e-09  2.8250760159337806e-07  -2.2594966636803159e-07  1.3915764175365160e-06  -8.6369142027818160e-08  -1.5346671977645478e-06  -1.4181814864279511e-07  -8.1996098028317804e-07  7.8666865851286558e-07  8.0626851294631234e-07  1.2511791742118245e-06  -3.3027227476378390e-07  3.6331414184548424e-08  -5.3629737994837650e-07  -4.1787351685541796e-07  4.0912819228046888e-07  -1.4382164695493394e-06  -3.2565546307909819e-07  5.2234406176491312e-08  -2.8792543025174026e-07  2.0977186624833521e-06  9.5520254279189268e-07  1.4745013529043435e-06  3.4093515233072838e-07  9.7915445257338099e-07  -2.8325112932197544e-08  7.2003574520330247e-07  6.1070022211864750e-07  -1.3171446332788041e-07  1.7023569367745876e-04  -2.5102984470800494e-07  1.9571528090973047e-07  -1.8586604708608197e-05  -4.7727551496067153e-04  7.8118053574462683e-05  -4.9906915240157160e-04  -4.7974466891137447e-04  -5.3657808782563909e-05  -4.8648180826273416e-07  -2.8009300924932063e-07  -3.3789104624373799e-05  -4.9364129148839241e-04  9.9391485290122295e-07  -4.4749694620391456e-04  -4.7756823771517165e-04  8.8604352558553576e-07  -5.5367130615795161e-07  5.2342043886419496e-07  -7.7830963961125283e-08  1.0071992651347483e-07  -6.7243827776837255e-07  5.1713991595056551e-07  -3.0854906642730165e-07  -2.5128552610587062e-10  8.2629666802630452e-07  -1.6986450638353316e-07  4.7018456767051196e-07  4.5127236967128479e-07  8.3976872991061850e-07  1.5782230207434373e-06  -1.3792331199445826e-07  -4.7389697093245553e-09  3.1158923495668308e-08  -4.1668293789301638e-05  -2.5229711994125050e-05  -5.5330495474384637e-06  -1.8261966754666389e-05  -5.6890127567591662e-06  -6.4623701313892535e-06  -1.8025972840188863e-05  8.2546523592342337e-08  1.0635241112577056e-08  -2.5996386471869298e-05  -4.5002727367902238e-05  -5.1871199243446987e-07  -2.4307366291516326e-07  3.4949784367549740e-07  4.0313471611117021e-07  3.5337345132653805e-07  9.3479234062898283e-07  4.1106440277817204e-08  2.0350007979207594e-06  2.3613452789085409e-07  -2.7621327157731708e-07  -2.3573198088233041e-07  7.3220918101018420e-07  -2.0972410987320953e-05  -3.6530509213176794e-04  1.7430726135895616e-06  -4.9893101963053570e-06  1.4452316827437796e-04  -3.8093536551030108e-07  -1.2541271211930886e-06  1.0713577828571141e-06  8.2128832084686011e-07  -8.7630377776725104e-05  8.0466728791359207e-04  1.6244059939034644e-07  -9.1237066889948149e-08  1.0818255421365242e-07  1.5472846985096407e-07  1.1885850846021909e-06  -6.5325047078771096e-07  9.6500794991397609e-07  -1.5615999731269427e-06  -2.7590742239907644e-06  -1.6564094341038606e-07  4.0963653745504467e-07  3.3654022436057964e-07  -7.5125241753318669e-07  -7.1642569508659352e-07  -1.0248852166051086e-07  4.6414739643009079e-07  8.4534878999719054e-07  -2.3426646730753026e-06  -4.5615902985359242e-07  2.4800752431393585e-07  4.4250787175260017e-07  -3.8229300883096726e-08  -4.9811580897658336e-07  3.7831902401549997e-08  1.3241674372693912e-07  1.7609254451889284e-06  -9.7919674245040439e-07  -2.3917551147976862e-06  -3.9090908455483126e-07  1.4062721516561698e-08  1.2084338151633514e-07  2.6854801824472181e-07  -6.3124477835197412e-06  -6.1468135096844297e-06  -4.3505609411145815e-06  8.5235184539789448e-05  1.3944513016856103e-06  -4.4484395872753940e-05  -6.4116033979386185e-06  5.1783879372288414e-04  4.1136847141932432e-07  -4.2519390268928022e-06  -1.3280073691200847e-06  -3.7408367889916840e-06  6.0795192920960216e-07  -1.9702078865358391e-04  -2.1403700080695513e-04  -3.3535373052061459e-07  8.6057850192148101e-07  -4.8352457801852950e-07  -3.8742848486862448e-07  1.5313264985727333e-07  8.2279203036567002e-03  -3.0056316182072872e-05  8.2579295138636756e-07  -2.2932253578003000e-07  -1.1841175787088802e-07  -1.0608741709308854e-06  3.0480074589807503e-07  -1.6051326634723370e-06  3.3414866379170378e-07  7.5057428800138550e-07  3.2020935526309153e-07  -1.2581332456804121e-06  -5.2766626442977452e-07  -4.2210156555820422e-08  -2.8992270548504506e-07  -4.7396326954017588e-06  -5.6915399492573326e-05  4.9144021914114612e-08  2.3002034620997701e-07  3.3519246307350553e-07  6.7567114651821136e-07  1.1277489044400749e-06  -8.0346341367764199e-07  -8.8349646124916487e-07  -1.2573669583341812e-06  -1.5911366967234984e-07  1.5394450468832764e-06  -3.5606805592318674e-07  3.0380118849099692e-07  -2.6353859022783768e-07  8.9675356600506446e-07  -1.4530654841000582e-07  3.4993397932395510e-07  -8.1061418762290001e-07  -3.1979644569698324e-04  -2.6796100556665997e-04  -1.2032393395921763e-03  -3.3857341218435593e-04  -1.0438803628872734e-06  -4.0607627285520260e-07  3.0282818867499148e-04  -6.7127528829593507e-07  -3.7158075880121444e-09  -9.4110367396696675e-05  -1.7092406750757456e-06  -6.1564275332983242e-05  -1.0576380152852521e-06  -2.0501904194698460e-05  -7.4205875036235162e-07  -1.0709973462988126e-06  8.2315072523246554e-07  7.2986727329321662e-07  -8.3931892647175404e-07  1.7629682986942159e-07  6.2954486260091182e-07  -2.6375852502448404e-07  4.4038692831912206e-07  7.1156521545748912e-03  1.8657076608012382e-07  1.3593290515024020e-06  2.4966585022394648e-07  6.2555620470400386e-07  5.1454402902571894e-07  -4.5900404378692026e-07  -1.4705471837006475e-07  4.7707036459868714e-07  1.8118394376692665e-07  -8.0067110983739046e-07  1.0024291803671916e-06  -5.0841174809617342e-07  -4.9108767975623721e-08  2.3548278337413503e-07  1.4344898035470001e-06  7.4877620144928723e-07  7.4850956094354871e-07  4.5110582165076827e-07  -6.1492176183102189e-07  -7.6325146067061257e-07  1.0270458245359183e-07  -1.2350267420690902e-06  -8.5030034462133129e-07  -5.5879981533588818e-07  2.6987844965071508e-07  5.8465019672975046e-08  6.5922994671745382e-07  -5.3490738921061738e-06  2.8636483595074069e-07  2.7927907504390719e-04  -1.7733175534631117e-06  -9.2919591015767030e-05  7.3705230123033884e-07  -1.3516458472884051e-06  -4.8558673446126311e-04  -1.8989796848785619e-05  -2.2586195276240582e-05  -3.4832469018831071e-05  -6.9325297043300958e-06  -2.4024771788593815e-05  -8.1359633046030260e-05  5.7150893579275056e-04  -6.5505152523394881e-07  -2.0690578940318704e-07  1.0833220284621293e-06  -1.4445212762176114e-06  -5.9974585969839229e-07  1.6449305693350536e-06  -1.4732956007851596e-06  7.0657124123747194e-07  9.7679093346003243e-07  -4.8740605323680545e-07  -3.3567951557581858e-08  1.1124412654366419e-06  -7.3910980364907069e-07  -1.1013525730311547e-05  -1.2605598390488375e-06  -8.5552338282144738e-07  -8.8993214708343905e-08  -2.9943932730428708e-05  -5.5702300110136501e-06  7.4184996241555874e-08  5.1008876291882258e-07  -4.6214661295685806e-07  1.5996457291359605e-06  3.4118084361242203e-08  -4.0355830087425740e-07  1.1232128619164522e-06  7.0906318058658939e-08  1.9061429351072227e-07  -4.1190519328442687e-05  -1.0831483149410023e-06  1.3412806218247547e-07  2.8362472637781914e-07  1.4952754141894371e-06  8.1911052510051907e-07  1.4279187493652449e-06  5.3357863580034943e-07  2.4361506611551523e-07  -1.7364419923958716e-07  -1.7985755803881063e-07  1.1285957871141584e-06  -1.6167405205712770e-03  4.7993665234647726e-03  -1.2841043536734361e-05  -7.2201247818567668e-06  -1.7253286448874527e-07  4.6773730443554407e-07  -2.5723297449822274e-07  -1.0680323021051901e-06  -5.5752494379780267e-06  -1.2460922312507807e-06  -2.4586121480372437e-06  -2.0161438825158238e-06  -7.4731023850088957e-06  -4.4136361969377966e-05  1.7278169360584788e-07  5.3182826811213170e-04  6.5274967818797833e-07  7.7309667910211393e-07  -1.3322079027223920e-05  -4.5126018076727088e-04  -1.1267039071582872e-03  -6.8467821196612069e-06  -1.1971525037667461e-05  -8.8446072806494286e-05  -2.7733392112579510e-04  -1.7699141196277561e-03  -4.8035999423097977e-07  6.2633117326657995e-07  2.1017087344714935e-07  8.8954072978808873e-07  5.2444050736744612e-03  -7.0699288090285252e-06  2.6656910170444973e-07  7.3531972927865729e-07  2.7652666322326562e-07  -4.6804505850248221e-07  3.1330272075698620e-07  7.5134452286319470e-07  4.7304986798218162e-08  -8.4625504324749120e-07  -7.7077001122190299e-07  4.3564972969966984e-07  5.4183139132855168e-07  -2.6108217407716556e-06  8.6916530115868018e-07  2.5455302945222744e-07  -6.9517093936011750e-07  -2.6662303021431990e-07  -2.8859756011450924e-07  -8.1229603303214506e-07  -2.1651742976256459e-05  -6.1683283426700323e-06  -5.2047226790171455e-07  -5.1283568865638813e-07  -4.1355457545693438e-07  -4.4412870536956477e-07  -1.7368070429251833e-06  6.7506354777403926e-07  -1.1560393691168819e-06  6.8258475493301908e-07  -2.8286211682166498e-07  -8.7701279325383307e-07  1.1767184310126694e-07  -4.0775435779553129e-07  -4.4092634150274331e-07  -5.3904182032215270e-07  8.2954208084829347e-07  1.1211407674738858e-06  6.2827787937477787e-07  4.0913242084542967e-07  6.6778810969884585e-07  -5.7105804213929232e-07  1.9802534287494941e-06  -1.6131263403640238e-07  -1.3012965151200531e-05  -1.8409105187117055e-06  -2.3661069338625406e-06  -3.8043344369386617e-07  -1.2113783273373149e-08  -8.5235852911232858e-06  3.2305049990328566e-07  -3.2530297683467939e-05  -1.1232343025171404e-05  -2.3708706509199882e-05  5.4419907718943170e-04  -5.8493888112125214e-07  -4.4940650129982681e-07  -3.8289774796009051e-07  1.5118956507014574e-07  6.5997417673024159e-08  -6.5248329054104383e-07  8.9690625704430255e-07  1.1080527974320719e-06  8.5947743850067299e-05  -1.3209269636693614e-04  -3.3678247817611367e-05  1.5526777404990497e-05  1.3145076982761993e-06  4.4675304080535039e-06  -1.3172923683302640e-06  7.8637959680393326e-06  3.2266565850183122e-05  -7.8881820761927124e-05  -6.7483963519917086e-03  -2.0460640236826175e-05  1.3710351414860065e-07  5.9295764958895925e-07  8.5437119504590741e-05  1.2175497977079989e-04  4.7465164896943470e-04  2.9024992747529321e-07  5.7228501692898866e-04  -1.2600682586244366e-06  -2.4730778398047961e-07  -7.4442133383769626e-03  2.1625783486697047e-07  -5.3492163350724172e-08  -9.5445541260655136e-07  -1.0144354028449896e-06  -1.3478809067034443e-07  -2.7917773334694133e-07  8.3339042068263869e-07  1.5090696501670130e-06  -3.1734503823975947e-07  2.2131161758339657e-07  -1.6807724245847724e-07  -1.2322805053077985e-05  -3.6005575231414524e-06  9.5794659722891988e-07  -2.9212560835478581e-08  -3.6858513753123428e-04  -1.4736453925340978e-04  5.5241148755467577e-07  -3.8866635156948280e-07  7.4712396641505167e-07  -5.7316396551593202e-07  1.2630300853647478e-06  -9.7198985259110554e-07  4.4280502265999269e-07  -1.3303013800125337e-04  -6.3775783731550993e-07  2.8013497929270162e-07  -1.2864371691217603e-07  6.2000791210238733e-04  -2.6122647854711465e-05  -1.8192098482525504e-07  2.6928845569421667e-07  -2.5572470654267335e-07  1.2926647712097676e-08  7.4752022709484571e-07  4.2574164480935422e-08  -3.5375482992342827e-07  -6.6363070750123153e-07  5.0706146868427416e-07  -2.7285351240850937e-07  -2.8726362325540302e-04  -1.6929683048376050e-06  -1.3088126361091276e-05  -1.5611351446274858e-07  -1.0767455975460003e-06  -1.0117076870254821e-05  8.8980025675437253e-07  9.6089574679400488e-07  2.6057724202907648e-06  1.3029187990488255e-06  7.1181713980339326e-04  -8.0305378364088993e-06  -7.8286107258282927e-07  -6.6622334809766458e-06  -2.8169986838242309e-05  -1.5861120442796582e-07  -2.5594748249562443e-07  -4.0261996543190651e-07  -2.0117756580909113e-07  -4.6072208824870853e-07  -4.2062538058519345e-08  3.8559678577787561e-07  -8.4684485493192350e-07  -1.2084200206044646e-05  -1.4446828399901993e-05  -1.8957844520897632e-07  -6.9235274868190106e-07  3.2890641387542323e-07  -4.0566093900181674e-07  -1.0669060017180938e-03  -3.5270420383825386e-05  2.2934750019456297e-07  -5.0748124430494401e-06  -2.0511229935455096e-05  1.3951149169818546e-06  -4.6785705967832583e-07  -4.7822566531889242e-05  -8.2134078454888110e-04  -9.6550448181418800e-04  -7.5848310544097866e-04  7.5998553389016139e-07  -8.6523728288545380e-08  1.0634487395001363e-06  1.2519620962666131e-07  -4.7876162052279883e-08  1.2091193501107916e-07  -9.8064221478564573e-07  2.0547416000238144e-07  2.5450419436872009e-07  1.4719662029250323e-07  -9.7678710275543769e-07  2.6952984241403231e-07  1.7610542781155907e-06  7.1708139873098896e-07  4.1776899779409580e-07  -2.6758813454659362e-05  -1.8750902814058601e-05  2.4433697314162296e-07  2.4052763111522648e-07  -6.4648447154738887e-07  6.3290873462037903e-07  7.9300416696210824e-07  2.8753504535195899e-07  -1.6264318364528838e-06  -1.4312109625727604e-06  3.5501544137781480e-07  7.1947141497843933e-07  -7.4489970602713994e-07  -7.6811108556060990e-07  5.5655142258896293e-07  -7.0105410379807141e-09  -2.8871852595033553e-05  -9.1924180551379914e-05  1.8970650327839920e-03  -3.3248542016897668e-06  -1.1215197658739559e-06  -8.2020079397768377e-07  -5.1907935223152014e-07  -3.5097069995196623e-05  -1.7691468812627747e-06  8.3536021918283183e-07  -3.2462207329557089e-04  -9.7489971292835072e-06  -2.6211412397866752e-07  -1.1181517861263212e-08  8.3375557478815765e-07  -1.3302140028852813e-06  1.0327586885856970e-06  1.0494887111647241e-06  8.5931168060936206e-07  7.4881728852252294e-07  4.6417884749899025e-07  1.3926283437701985e-07  9.7390795085234294e-07  -8.9839396462842176e-07  6.0613883145369186e-07  -1.4899779546346909e-06  7.1443816813414266e-07  1.6528800738703536e-06  -1.8387727249979598e-07  5.6510837274358162e-07  6.4660879005245569e-07  2.4635761695536549e-06  -3.6025427364618820e-07  -2.2361440268375351e-06  -1.6737616244086293e-06  9.1498105214615258e-07  3.4556282872932683e-07  -3.4273332200272449e-08  -9.5228841051700698e-08  5.8914149434971181e-07  -7.21735711360368