<?xml version="1.0"?>
<VTKFile type="UnstructuredGrid"  version="0.1"  >
<UnstructuredGrid>
<Piece  NumberOfPoints="16808" NumberOfCells="31534">
<Points>
<DataArray  type="Float64"  NumberOfComponents="3"  format="ascii">0 12.7 0  0 0 0  0.2 0 0  0.2 12.7 0  0.2 6.35 0  0 6.35 0  0 3.175 0  0.2 3.175 0  0 9.524999999999999 0  0.2 9.524999999999999 0  0 11.1125 0  0.2 11.1125 0  0.2 1.5875 0  0 1.5875 0  0.2 4.762499999999999 0  0 4.762499999999999 0  0.2 7.937499999999999 0  0 7.937499999999999 0  0.2 10.31875 0  0 10.31875 0  0.2 11.90625 0  0 11.90625 0  0 5.556249999999999 0  0.2 5.556249999999999 0  0 0.79375 0  0.2 0.79375 0  0 2.38125 0  0.2 2.38125 0  0.2 7.143749999999999 0  0 7.143749999999999 0  0 8.731249999999999 0  0.2 8.731249999999999 0  0 3.96875 0  0.2 3.96875 0  0.2 11.509375 0  0 11.509375 0  0 10.715625 0  0.2 10.715625 0  0 7.540624999999999 0  0.2 7.540624999999999 0  0.2 2.778125 0  0 2.778125 0  0.2 5.159374999999999 0  0 5.159374999999999 0  0.2 5.953125 0  0 5.953125 0  0.2 8.334375 0  0 8.334375 0  0.2 0.396875 0  0 0.396875 0  0 1.190625 0  0.2 1.190625 0  0.2 3.571874999999999 0  0 3.571874999999999 0  0.2 4.365625 0  0 4.365625 0  0.2 1.984375 0  0 1.984375 0  0.2 6.746874999999999 0  0 6.746874999999999 0  0.2 9.128124999999999 0  0 9.128124999999999 0  0.2 9.921874999999998 0  0 9.921874999999998 0  0 12.303125 0  0.2 12.303125 0  0 11.7078125 0  0.2 11.7078125 0  0.2 10.5171875 0  0 10.5171875 0  0.2 8.135937499999999 0  0 8.135937499999999 0  0.2 5.754687499999999 0  0 5.754687499999999 0  0 5.3578125 0  0.2 5.3578125 0  0 7.739062499999999 0  0.2 7.739062499999999 0  0 3.770312499999999 0  0.2 3.770312499999999 0  0.2 1.3890625 0  0 1.3890625 0  0.2 2.579687499999999 0  0 2.579687499999999 0  0 2.9765625 0  0.2 2.9765625 0  0 4.1671875 0  0.2 4.1671875 0  0 0.1984375 0  0.2 0.1984375 0  0 0.5953124999999999 0  0.2 0.5953124999999999 0  0.2 1.7859375 0  0 1.7859375 0  0 2.1828125 0  0.2 2.1828125 0  0.2 0.9921874999999999 0  0 0.9921874999999999 0  0.2 12.1046875 0  0 12.1046875 0  0.2 12.5015625 0  0 12.5015625 0  0 9.723437499999999 0  0.2 9.723437499999999 0  0 8.9296875 0  0.2 8.9296875 0  0 9.326562499999998 0  0.2 9.326562499999998 0  0 6.548437499999999 0  0.2 6.548437499999999 0  0 6.945312499999999 0  0.2 6.945312499999999 0  0 3.3734375 0  0.2 3.3734375 0  0 8.532812499999999 0  0.2 8.532812499999999 0  0 6.1515625 0  0.2 6.1515625 0  0 4.564062499999999 0  0.2 4.564062499999999 0  0 4.960937499999999 0  0.2 4.960937499999999 0  0.2 7.342187499999999 0  0 7.342187499999999 0  0 10.1203125 0  0.2 10.1203125 0  0.2 10.9140625 0  0 10.9140625 0  0 11.3109375 0  0.2 11.3109375 0  0.1 10.81484375 0  0.1 12.00546875 0  0.1 5.85390625 0  0.1 8.235156249999999 0  0.1 8.632031249999999 0  0.1 8.83046875 0  0.1 9.425781249999998 0  0.1 9.624218749999999 0  0.1 10.21953125 0  0.1 10.41796875 0  0.1 10.61640625 0  0.1 11.60859375 0  0.1 11.80703125 0  0.1 11.41015625 0  0.1 5.258593749999999 0  0.1 7.639843749999999 0  0.1 12.7 0  0.1 4.067968749999999 0  0.1 2.87734375 0  0.09999999999999999 2.67890625 0  0.1 3.86953125 0  0.1 1.88515625 0  0.1 0.6945312499999999 0  0.1 1.28984375 0  0.1 1.48828125 0  0.1 2.08359375 0  0.1 0 0  0.1 0.29765625 0  0.1 0.8929687499999999 0  0.09999999999999999 1.09140625 0  0.1 0.4960937499999999 0  0.1 7.242968749999999 0  0.1 4.861718749999999 0  0.1 5.060156249999999 0  0.1 4.464843749999999 0  0.1 4.663281249999999 0  0.09999999999999999 3.47265625 0  0.1 6.846093749999999 0  0.1 7.044531249999999 0  0.1 6.449218749999999 0  0.1 6.647656249999999 0  0.09999999999999999 6.250781249999999 0  0.1 6.05234375 0  0.09999999999999996 1.68671875 0  0.1 4.266406249999999 0  0.1 3.07578125 0  0.09999999999999999 2.28203125 0  0.09999999999999996 2.48046875 0  0.1 3.671093749999999 0  0.1 3.27421875 0  0.09999999999999999 5.457031249999999 0  0.09999999999999996 5.65546875 0  0.09999999999999999 7.441406249999999 0  0.09999999999999999 7.838281249999999 0  0.09999999999999996 8.036718749999999 0  0.1 11.21171875 0  0.1 11.01328125 0  0.1 10.02109375 0  0.1 8.43359375 0  0.1 9.227343749999999 0  0.1 9.02890625 0  0.1 9.82265625 0  0.1 12.40234375 0  0.1 12.20390625 0  0.1 12.5755843996063 0  0 0.09921874999999999 0  0.2 0.09921874999999999 0  0.09999999999999999 0.148828125 0  0.09922180175781284 7.143749999999999 0  0 7.639843749999999 0  0.2 7.639843749999999 0  0 5.258593749999999 0  0.1007781982421872 5.159374999999999 0  0.2 5.258593749999999 0  0.09922180175781285 11.90625 0  0.09922180175781285 11.509375 0  0.1007781982421872 11.7078125 0  0 11.41015625 0  0 11.60859375 0  0.2 11.41015625 0  0.2 11.60859375 0  0.09922180175781285 10.715625 0  0.1007781982421872 10.5171875 0  0.1007781982421872 10.31875 0  0 10.41796875 0  0.2 10.41796875 0  0 10.21953125 0  0.2 10.21953125 0  0.1007781982421872 9.524999999999999 0  0 9.624218749999999 0  0.2 9.624218749999999 0  0 9.425781249999998 0  0.2 9.425781249999998 0  0.1007781982421872 5.953125 0  0.09922180175781285 8.135937499999999 0  0.1007781982421872 8.731249999999999 0  0 8.83046875 0  0.2 8.83046875 0  0 8.632031249999999 0  0.2 8.632031249999999 0  0.2 8.235156249999999 0  0 8.235156249999999 0  0.2 5.85390625 0  0 5.85390625 0  0 11.80703125 0  0 12.00546875 0  0.2 11.80703125 0  0.2 12.00546875 0  0 10.61640625 0  0 10.81484375 0  0.2 10.61640625 0  0.2 10.81484375 0  0.09922180175781287 5.556249999999999 0  0.1007781982421872 11.1125 0  0.09922180175781285 8.334375 0  0.09922180175781285 8.9296875 0  0.09922180175781285 9.723437499999999 0  0.2 12.60078125 0  0 12.60078125 0  0.1007781982421874 1.984375 0  0.1007781982421874 1.3890625 0  0 2.67890625 0  0 2.87734375 0  0.1007781982421874 2.5796875 0  0.2 2.67890625 0  0.2 2.87734375 0  0 3.86953125 0  0 4.067968749999999 0  0.1007781982421874 3.7703125 0  0.2 3.86953125 0  0.2 4.067968749999999 0  0.09922180175781263 2.9765625 0  0 2.08359375 0  0.2 2.08359375 0  0.2 1.48828125 0  0 1.48828125 0  0 1.28984375 0  0.2 1.28984375 0  0 0.6945312499999999 0  0.2 0.6945312499999999 0  0.2 1.88515625 0  0 1.88515625 0  0.09922180175781251 0.9921874999999999 0  0.1007781982421875 0.5953124999999999 0  0 0.29765625 0  0.2 0.29765625 0  0.1007781982421875 0.396875 0  0 0.4960937499999999 0  0.2 0.4960937499999999 0  0.2 1.09140625 0  0 1.09140625 0  0.1007781982421876 0.7937499999999998 0  0 0.8929687499999999 0  0.2 0.8929687499999999 0  0.1007781982421876 7.937499999999998 0  0 8.036718749999999 0  0.2 8.036718749999999 0  0 7.83828125 0  0.2 7.83828125 0  0.1007781982421876 7.739062499999999 0  0.09922180175781239 7.540624999999999 0  0.2 7.441406249999998 0  0.09922180175781239 7.3421875 0  0 7.441406249999998 0  0 5.655468749999999 0  0.09922180175781239 5.754687499999999 0  0.2 5.655468749999999 0  0 5.45703125 0  0.2 5.45703125 0  0.1007781982421876 5.3578125 0  0.1007781982421876 3.175 0  0.09922180175781241 3.571874999999999 0  0 3.671093749999999 0  0.2 3.671093749999999 0  0.1007781982421876 2.38125 0  0 2.48046875 0  0.2 2.48046875 0  0 2.28203125 0  0.2 2.28203125 0  0.1007781982421876 2.1828125 0  0 3.07578125 0  0.09922180175781242 1.5875 0  0 1.68671875 0  0.09922180175781239 1.7859375 0  0.2 1.68671875 0  0 6.05234375 0  0 6.250781249999999 0  0 6.44921875 0  0.2 6.05234375 0  0.2 6.250781249999999 0  0.1007781982421876 6.349999999999999 0  0.2 6.44921875 0  0.1007781982421876 6.548437499999999 0  0.09922180175781242 6.746874999999999 0  0.1007781982421876 6.945312499999998 0  0 6.647656249999999 0  0 6.84609375 0  0.2 6.647656249999999 0  0.2 6.84609375 0  0 3.27421875 0  0 3.47265625 0  0.2 3.07578125 0  0.2 3.27421875 0  0.1007781982421876 3.3734375 0  0.2 3.47265625 0  0.09922180175781244 4.167187499999999 0  0 4.266406249999999 0  0 4.46484375 0  0.2 4.266406249999999 0  0.1007781982421876 4.365625 0  0.2 4.46484375 0  0 5.060156249999999 0  0.2 5.060156249999999 0  0.1007781982421876 4.564062499999999 0  0.09922180175781242 4.762499999999999 0  0.1007781982421876 4.960937499999998 0  0 4.663281249999999 0  0 4.86171875 0  0.2 4.663281249999999 0  0.2 4.86171875 0  0.2 7.044531249999999 0  0.2 7.242968749999999 0  0 7.044531249999999 0  0 7.242968749999999 0  0.09922180175781239 1.190625 0  0.09922180175781241 3.96875 0  0.09922180175781241 2.778125 0  0.09922180175781195 12.303125 0  0.100778198242188 12.1046875 0  0 12.20390625 0  0 12.40234375 0  0.2 12.20390625 0  0.2 12.40234375 0  0 9.028906249999999 0  0 9.227343749999999 0  0.09922180175781198 9.128125000000001 0  0.09922180175781198 9.3265625 0  0.2 9.028906249999999 0  0.2 9.227343749999999 0  0 8.43359375 0  0.09922180175781198 8.5328125 0  0.2 8.43359375 0  0 9.822656249999998 0  0 10.02109375 0  0.09922180175781198 9.921875 0  0.09922180175781198 10.1203125 0  0.2 9.822656249999998 0  0.2 10.02109375 0  0.09922180175781196 10.9140625 0  0 11.01328125 0  0 11.21171875 0  0.09922180175781198 11.3109375 0  0.2 11.01328125 0  0.2 11.21171875 0  0.09922180175781198 6.1515625 0  0.08672180175781248 12.48896407480315 0  0.07461090087890626 0.2232421875 0  0.1253890991210938 0.0744140625 0  0.05038909912109379 4.3164077878937 0  0.1496109008789064 5.605467212106299 0  0.1496109008789064 8.0867202878937 0  0.05038909912109358 5.1101577878937 0  0.05038909912109338 4.514845287893699 0  0.05038909912109338 6.896095287893699 0  0.05038909912109338 6.499220287893699 0  0.05000000000000002 6.002734375 0  0.05000000000000002 3.819921874999999 0  0.1496109008789064 5.5070327878937 0  0.1499999999999996 7.391796874999998 0  0.05038909912109338 4.911720287893699 0  0.1496109008789069 9.971092212106297 0  0.1496109008789069 9.177342212106298 0  0.05038909912109314 12.0554702878937 0  0.149610900878906 12.2539077878937 0  0.05 12.7 0  0.1374999999999996 12.63779219980315 0  0.1496109008789064 9.772654712106299 0  0.1496109008789064 9.6742202878937 0  0.1496109008789064 8.978904712106299 0  0.1496109008789064 8.880470287893701 0  0.1496109008789064 8.383592212106299 0  0.1496109008789064 
[...]
<PointData  Scalars="sigma (Pa)"> 
<DataArray  type="Float64"  Name="sigma (Pa)"  format="ascii">4.7705213957625961e-02  4.6313882372296743e-02  -4.2100470995364771e-02  -4.6016006747417119e-02  -1.9588382734771643e-05  1.6582257778929416e-08  6.4923530498114621e-08  -5.9107930775872844e-07  5.2865735472259926e-07  3.0151735412358936e-07  -8.7165016444344961e-07  -3.4468367274370547e-06  3.4725565172334613e-07  -4.1324998004905227e-07  1.0100308852188112e-07  9.0149641037957933e-08  -5.1854540162479484e-06  -2.2623651308424438e-06  -6.2394070509294546e-08  -5.6598616477755513e-09  1.0286607277145995e-06  8.7048543645002349e-07  3.1840785774675977e-07  -2.4576393657619428e-04  -2.7819411435975281e-07  3.3976214288310481e-07  6.8490886583871945e-08  -5.3326256067970632e-07  -1.2663021955309941e-04  2.4039384637261490e-07  -1.0950297670522704e-06  -3.0897314176195687e-08  -1.7635228474109286e-06  -2.8592909291263555e-07  5.3716518983353691e-07  1.9789943088890840e-06  7.6448138648094854e-08  -1.4177459342857039e-08  1.1068669491947884e-05  -9.2249924781171876e-04  -2.4600536760020600e-07  -1.2859743144963232e-06  8.1736142900796247e-04  -1.9061681013405894e-05  -5.7982458141377281e-05  5.8333349420647288e-08  3.4170270722639102e-07  -3.2110906014987155e-07  8.6048585468660704e-08  -1.6761467168207339e-07  -2.2805338567795223e-07  -2.9849288961521842e-07  -5.5825429970246866e-08  6.3830820022247795e-07  -1.8469304404318312e-07  -8.0856874335703814e-08  -6.2673652584027564e-07  -7.6830254222282808e-08  3.4257335784119355e-05  5.9874895957098003e-10  1.9209763007546642e-08  3.1075466614150563e-07  4.5557727148294272e-08  5.9554891552702977e-07  4.4064930950411986e-07  2.0671529341092957e-06  4.9454554243721979e-07  -5.0376174957623503e-07  3.6155451902020627e-07  -1.2688070827439951e-06  -1.0135169214593595e-06  -3.1381132691644229e-06  -1.1894098625056835e-04  4.5037718926320655e-07  1.8650841582132319e-06  -8.6784111150781606e-04  -4.5892121753183496e-06  2.9653370843186881e-04  -3.0281739052797836e-07  6.4239935098578420e-07  -1.5687716390144260e-07  1.4240352770173680e-06  1.1307766152697648e-06  3.3154541389756313e-07  9.4053919367417429e-08  -1.0352365382448627e-07  -2.2207798277301908e-07  9.4556802452088719e-07  7.1551474944391292e-07  1.5219722972041932e-06  -2.6979095134313018e-07  2.3152191876679936e-07  -4.8579637866372608e-07  -1.1174382821527788e-07  9.5891435986708829e-07  -4.8022651736290716e-07  1.7752097766540320e-08  5.3316165288173795e-07  -3.6821219157947150e-08  2.2022420884728127e-07  -2.8691512247093361e-07  5.7809891717385638e-07  -8.4925229491399174e-08  5.1395647742584471e-07  5.5595317750340484e-07  3.7550101387935473e-07  2.6472623938336884e-07  -7.8670405174579271e-07  -5.6279376102530471e-08  -2.0063847062345746e-05  -1.7331849205495203e-07  -6.1992985620797609e-05  4.3924814082600313e-07  1.3984942142187203e-07  2.3318683332220364e-07  -5.0413428517090164e-07  1.1680647221152903e-07  2.3674319619849146e-05  -3.0273824520369365e-07  -1.5832579420835522e-06  -1.8733657637747327e-06  -5.7653995906666119e-06  -2.6103923225365003e-04  -4.6448497989909328e-07  2.9052732382783836e-07  -8.2688213452348062e-07  3.2498208207325592e-08  1.8472145411715890e-08  -1.6709139234700778e-06  4.3009081190506125e-07  -6.2387203599859304e-07  1.8385440594246575e-07  -2.2131518663448316e-05  -8.7265231342376343e-07  2.7865323830534110e-07  4.3985590860757425e-07  -9.8997311801787742e-07  2.5080191422067225e-08  -4.9979164576737907e-07  9.4600330428450730e-07  2.4008431310244505e-08  -5.6816147019797427e-07  2.1407958344240215e-07  -1.0723651892068767e-07  -1.0403685979285941e-03  -1.1353019335576292e-03  1.0378256081657786e-04  -1.0781231177757782e-06  2.8921205358032023e-07  -7.1136956827711055e-07  -7.6456083292955771e-08  1.2149027085242475e-07  -9.8943162394243453e-07  7.7631879721083157e-07  -5.3766925615082038e-07  -1.8425388224241246e-07  2.8051970613365287e-04  1.2609070427366182e-06  -6.0115295096353721e-07  1.0331444764768017e-06  -2.5353310535348094e-07  -5.3243793545798162e-05  -2.0422699364017597e-05  1.8128285908521561e-03  1.1665378779610722e-06  4.9129289877992573e-07  -1.2876716874764915e-06  -1.3332940797304300e-05  -2.4102694900721771e-05  -5.0083022456367583e-06  -8.3944774775681069e-06  -7.7959738059412181e-06  -1.2421653783820660e-05  -1.0346661619702051e-06  2.7279699166508443e-08  -5.6671645190995519e-07  1.0122695267224232e-07  9.4127342496042667e-08  4.6313448981583299e-07  1.5485776189451319e-06  -1.5246362624483410e-04  -4.5837482477379977e-05  -1.6268389857684436e-04  1.9452943081241019e-03  -1.8823863155581274e-05  4.3988963750227265e-07  -7.7389790523025345e-07  -7.4439619521473067e-07  2.0034290624261058e-07  -4.9617177798824458e-07  3.1261501008036046e-07  7.9118820129670010e-07  3.2032565298961008e-06  -9.9522413902628800e-08  -6.2217891034377350e-06  1.0225246287229376e-05  3.6647573167915559e-06  -4.5163944303853856e-06  -3.5349554351187150e-05  2.2810760010370484e-05  -1.5101437243836228e-03  -5.2050546826935329e-06  8.9155738390351910e-05  -1.3813552045974056e-03  -5.8630905266319876e-07  2.6688572675509259e-07  -2.6034332419691414e-07  -1.0656309888408758e-06  1.8916177206159425e-07  2.2519144493372075e-07  1.0001334673394577e-07  -1.3148476207533122e-06  3.2199907921750672e-07  -8.5033639561068230e-07  1.4812573522067510e-06  -3.2205945799603393e-07  -1.3011360904715237e-06  -4.8284474713963821e-07  1.4005921544368341e-06  -1.1178058161664375e-07  1.1408423934488047e-07  7.9076442753981763e-07  1.4715784448815344e-07  -1.6693962959959809e-05  -3.0645398509820047e-06  1.6251035267803545e-07  8.6898387515518926e-07  -8.4043250247967940e-07  2.0101990399792792e-07  -2.3449611806981700e-07  -5.0605196034801759e-07  -5.7933354826702083e-07  -8.1896194398796651e-05  4.3997822660830790e-08  -1.9811803820428776e-06  -3.0362794425997451e-07  5.6110681269427929e-07  -3.7799163037260326e-08  7.2391619223210856e-07  -1.4202095489979387e-06  4.9084410413900191e-08  3.0137904680402387e-08  -5.3563759857451342e-05  -2.2618798443914654e-07  -5.0634465515039178e-07  -3.2849554025817583e-07  -1.3331234560761366e-06  3.6398581081109653e-06  4.2520756492382615e-06  9.3133522438744585e-07  1.6244891381468586e-06  4.0850970692766526e-08  1.2506430549739384e-06  1.5177844320258010e-06  1.3156959113480599e-06  -7.2522515787564064e-09  2.8297965867999322e-07  -2.2632644718587915e-07  1.3938999081056263e-06  -8.6513247197928569e-08  -1.5372293864590325e-06  -1.4205462465538748e-07  -8.2132964658407681e-07  7.8798206543669966e-07  8.0761464498899967e-07  1.2532684202169276e-06  -3.3082376455899774e-07  3.6392168002415506e-08  -5.3719284209322073e-07  -4.1857123426947024e-07  4.0981128443566175e-07  -1.4406177439256780e-06  -3.2619917695664025e-07  5.2321633364538915e-08  -2.8840617811012496e-07  2.1012212182635958e-06  9.5679744012322690e-07  1.4769633235467145e-06  3.4150441571240792e-07  9.8078932014045331e-07  -2.8372390935881326e-08  7.2123800837885030e-07  6.1171997962156935e-07  -1.3193438921638066e-07  1.7051993579443182e-04  -2.5144828968609031e-07  1.9604167798856630e-07  -1.8617640266278921e-05  -4.7807241994828151e-04  7.8248487006964487e-05  -4.9990244622626924e-04  -4.8054569751843269e-04  -5.3747400515177778e-05  -4.8729423383183783e-07  -2.8056038846155397e-07  -3.3845521780424076e-05  -4.9446552256830105e-04  9.9557447804096082e-07  -4.4824413053683719e-04  -4.7836563158344875e-04  8.8752301336403000e-07  -5.5459651686227448e-07  5.2429422495984589e-07  -7.7962267859833451e-08  1.0088785901362330e-07  -6.7356127700522125e-07  5.1800366384413028e-07  -3.0906436805975506e-07  -2.5150310032906560e-10  8.2767622491416907e-07  -1.7014828697785343e-07  4.7096958015469924e-07  4.5202579551216366e-07  8.4117073061852030e-07  1.5808581906074053e-06  -1.3815220511732064e-07  -4.7475259674422795e-09  3.1210788179187397e-08  -4.1737866308432614e-05  -2.5271838085615829e-05  -5.5422881861789675e-06  -1.8292458741441217e-05  -5.6985121033417932e-06  -6.4731605226042994e-06  -1.8056070601277006e-05  8.2683442696332884e-08  1.0652579890208375e-08  -2.6039792993666022e-05  -4.5077868893060789e-05  -5.1957781715310371e-07  -2.4347973847742515e-07  3.5008093781372219e-07  4.0380804950858741e-07  3.5396347536952260e-07  9.3635339992473762e-07  4.1174994826465910e-08  2.0383982297592851e-06  2.3652913197833397e-07  -2.7667446177592796e-07  -2.3612592151151762e-07  7.3343194140088171e-07  -2.1007428165037514e-05  -3.6591504008216596e-04  1.7459832152823880e-06  -4.9976409232729781e-06  1.4476447806439438e-04  -3.8157123994879632e-07  -1.2562217456547636e-06  1.0731462667753433e-06  8.2265961664425106e-07  -8.7776693416875807e-05  8.0601083983292089e-04  1.6271226911409275e-07  -9.1388891922828844e-08  1.0836317559699809e-07  1.5498523800097536e-07  1.1905695665120172e-06  -6.5434119728591361e-07  9.6661923218621202e-07  -1.5642073367823894e-06  -2.7636810284502828e-06  -1.6591752894973500e-07  4.1032051882200509e-07  3.3710287809750819e-07  -7.5250722847768006e-07  -7.1762189249870359e-07  -1.0265960273601984e-07  4.6492263058909751e-07  8.4676018785068301e-07  -2.3465758088228642e-06  -4.5692070789938060e-07  2.4842252782530222e-07  4.4324668934771317e-07  -3.8293177378446775e-08  -4.9894748737491912e-07  3.7895033097208959e-08  1.3263864606955217e-07  1.7638655932998659e-06  -9.8083184838642036e-07  -2.3957486453563192e-06  -3.9156169397122666e-07  1.4086257551309787e-08  1.2104511329016532e-07  2.6899655535670721e-07  -6.3229880994626888e-06  -6.1570768211503818e-06  -4.3578250579604114e-06  8.5377501412282591e-05  1.3967792570595942e-06  -4.4558671179076099e-05  -6.4223090648012290e-06  5.1870342696750521e-04  4.1205492318964269e-07  -4.2590380469182942e-06  -1.3302250645025267e-06  -3.7470831900571365e-06  6.0896746897455170e-07  -1.9734975334399437e-04  -2.1439437696601401e-04  -3.3591467884825757e-07  8.6201511753557359e-07  -4.8433145924177586e-07  -3.8807536174753487e-07  1.5338834032134698e-07  8.2416584317599687e-03  -3.0106501101943512e-05  8.2717143476888582e-07  -2.2970524253163394e-07  -1.1860968219338825e-07  -1.0626454008567412e-06  3.0530967099148922e-07  -1.6078127834206190e-06  3.3470645128972566e-07  7.5182760523839787e-07  3.2074397299527134e-07  -1.2602335856848877e-06  -5.2854713205417419e-07  -4.2280597794595064e-08  -2.9040678161832758e-07  -4.7475464593055349e-06  -5.7010431222972089e-05  4.9226366250095859e-08  2.3040399121273354e-07  3.3575210031238731e-07  6.7679883137062850e-07  1.1296315447380330e-06  -8.0480495041247272e-07  -8.8497150870583804e-07  -1.2594665289559541e-06  -1.5937980209849046e-07  1.5420160046411976e-06  -3.5666278172008414e-07  3.0430849380055746e-07  -2.6397863072921847e-07  8.9825088093235400e-07  -1.4554910603342658e-07  3.5051829062943853e-07  -8.1196761625466836e-07  -3.2033040877839234e-04  -2.6840841940784649e-04  -1.2052483836770356e-03  -3.3913872596827270e-04  -1.0456233274799526e-06  -4.0675428797174203e-07  3.0333381954472752e-04  -6.7239614546393287e-07  -3.7219900071540141e-09  -9.4267503492927971e-05  -1.7120946439105806e-06  -6.1667069139355771e-05  -1.0594041673286957e-06  -2.0536134809239622e-05  -7.4329786057479297e-07  -1.0727854495450873e-06  8.2452516543532191e-07  7.3108622851553548e-07  -8.4072032299897666e-07  1.7659115353097133e-07  6.3059601407791548e-07  -2.6419892329943208e-07  4.4112224689739648e-07  7.1275331326624593e-03  1.8688228758066009e-07  1.3615987123804955e-06  2.5008247374966810e-07  6.2660069145610017e-07  5.1540296970852987e-07  -4.5977048546737034e-07  -1.4730027338122371e-07  4.7786683482966854e-07  1.8148644165626429e-07  -8.0200786916726939e-07  1.0041028271985943e-06  -5.0926060975412337e-07  -4.9190783916589487e-08  2.3587659018063812e-07  1.4368847373965912e-06  7.5002675900479208e-07  7.4976029887293170e-07  4.5185929830315968e-07  -6.1594885100747006e-07  -7.6452609051756321e-07  1.0287601078069399e-07  -1.2370891068788836e-06  -8.5172032640418800e-07  -5.5973257695447603e-07  2.7032888066620081e-07  5.8562567891439653e-08  6.6033057865887508e-07  -5.3580053090899726e-06  2.8684341132897169e-07  2.7974538662731130e-04  -1.7762787243484028e-06  -9.3074738734623289e-05  7.3828274635984742e-07  -1.3539026893861725e-06  -4.8639751580300584e-04  -1.9021504198213091e-05  -2.2623906100335578e-05  -3.4890628719824737e-05  -6.9441047640959613e-06  -2.4064885968536415e-05  -8.1495478978436779e-05  5.7246318219874150e-04  -6.5614571479230390e-07  -2.0725170994880127e-07  1.0851310893421713e-06  -1.4469332746023250e-06  -6.0074744492485555e-07  1.6476768887444722e-06  -1.4757556561684759e-06  7.0775124404956242e-07  9.7842173630381345e-07  -4.8821987348284978e-07  -3.3624004961431124e-08  1.1142986165271960e-06  -7.4034366479156396e-07  -1.1031915106502654e-05  -1.2626644474280848e-06  -8.5695176049056626e-07  -8.9142016338001176e-08  -2.9993929842651903e-05  -5.5795307785134012e-06  7.4308187896701460e-08  5.1093934175264398e-07  -4.6291808827910839e-07  1.6023168274625177e-06  3.4174918856250757e-08  -4.0423220533626230e-07  1.1250883235710960e-06  7.1024735153839997e-08  1.9093261110999760e-07  -4.1259294993023694e-05  -1.0849570141551958e-06  1.3435164425969338e-07  2.8409881758483756e-07  1.4977724157496911e-06  8.2047822480098624e-07  1.4303029207787497e-06  5.3446963872728917e-07  2.4402194413039871e-07  -1.7393415422985873e-07  -1.8015786753838156e-07  1.1304802234514272e-06  -1.6194399864768922e-03  4.8073800081278369e-03  -1.2862483240816350e-05  -7.2321798376766527e-06  -1.7282100553049798e-07  4.6851831753586957e-07  -2.5766291526350123e-07  -1.0698155506333894e-06  -5.5845575194855333e-06  -1.2481729315176283e-06  -2.4627174319464449e-06  -2.0195103456150468e-06  -7.4855798582046096e-06  -4.4210056846248885e-05  1.7307046538727960e-07  5.3271625978293629e-04  6.5383943638399794e-07  7.7438762982747428e-07  -1.3344322519435520e-05  -4.5201364757184497e-04  -1.1285851601471053e-03  -6.8582139749264058e-06  -1.1991514017502740e-05  -8.8593751860628115e-05  -2.7779698486490921e-04  -1.7728693389333118e-03  -4.8116217347210847e-07  6.2737686168078848e-07  2.1052181030412955e-07  8.9102593251568495e-07  5.2531616375537825e-03  -7.0817332314914039e-06  2.6701398566375821e-07  7.3654757427581166e-07  2.7698802919211654e-07  -4.6882651217322940e-07  3.1382582673645242e-07  7.5259904186312532e-07  4.7383974017884883e-08  -8.4766803110925933e-07  -7.7205698680133649e-07  4.3637711872273787e-07  5.4273611623687186e-07  -2.6151808822540437e-06  8.7061654627460127e-07  2.5497773708325971e-07  -6.9633208095163211e-07  -2.6706820775996942e-07  -2.8907937427115171e-07  -8.1365218168500243e-07  -2.1687894473403760e-05  -6.1786276239952675e-06  -5.2134132473250591e-07  -5.1369204092662618e-07  -4.1424509396101196e-07  -4.4487026753934712e-07  -1.7397068626278339e-06  6.7619076229113066e-07  -1.1579698655825313e-06  6.8372423351141090e-07  -2.8333459035279045e-07  -8.7847699857582986e-07  1.1786826669343404e-07  -4.0843517997699909e-07  -4.4166273209019488e-07  -5.3994186381888873e-07  8.3092716047630919e-07  1.1230127504122744e-06  6.2932695403114297e-07  4.0981546193569511e-07  6.6890313934385738e-07  -5.7201125504565724e-07  1.9835600154920146e-06  -1.6158235609516991e-07  -1.3034693401224457e-05  -1.8439849055581164e-06  -2.3700575464283572e-06  -3.8106842132174382e-07  -1.2134045881233488e-08  -8.5378171171567061e-06  3.2359015035381812e-07  -3.2584613323862900e-05  -1.1251097308643544e-05  -2.3748292858734659e-05  5.4510772429317825e-04  -5.8591557152018773e-07  -4.5015689505149649e-07  -3.8353712887947353e-07  1.5144229063967177e-07  6.6107200085672507e-08  -6.5357266882601376e-07  8.9840407835397795e-07  1.1099028848381870e-06  8.6091250479831225e-05  -1.3231325105329540e-04  -3.3734480264675881e-05  1.5552702410121816e-05  1.3167025279764356e-06  4.4749898280542417e-06  -1.3194918483058972e-06  7.8769261216707706e-06  3.2320441216315459e-05  -7.9013529446403803e-05  -6.7596641244238569e-03  -2.0494803292851366e-05  1.3733243248727652e-07  5.9394770976583139e-07  8.5579773546492501e-05  1.2195827360981581e-04  4.7544417307236861e-04  2.9073466771430251e-07  5.7324055902665020e-04  -1.2621723627642010e-06  -2.4772048539183216e-07  -7.4566429138577806e-03  2.1661894818867732e-07  -5.3581800799262690e-08  -9.5604906604847288e-07  -1.0161291445999246e-06  -1.3501358054986658e-07  -2.7964437974832278e-07  8.3478198858562474e-07  1.5115892507982267e-06  -3.1787483834505306e-07  2.2168119830858002e-07  -1.6835816020742111e-07  -1.2343380531122736e-05  -3.6065693002464260e-06  9.5954585395241134e-07  -2.9261309289973817e-08  -3.6920056193939647e-04  -1.4761059309560714e-04  5.5333384284033451e-07  -3.8931550155148656e-07  7.4837198828177042e-07  -5.7412130666187687e-07  1.2651392532053883e-06  -9.7361317765630540e-07  4.4354392176224886e-07  -1.3325225828935260e-04  -6.3882279924489823e-07  2.8060254294636701e-07  -1.2885813184375096e-07  6.2104313695185399e-04  -2.6166264505264100e-05  -1.8222457782970311e-07  2.6973811809992573e-07  -2.5615169121624287e-07  1.2948221143917545e-08  7.4876836919604394e-07  4.2644692759824569e-08  -3.5434666394040103e-07  -6.6473875590292129e-07  5.0790798733959753e-07  -2.7330889279168952e-07  -2.8774326664973682e-04  -1.6957950356759454e-06  -1.3109979600781404e-05  -1.5637416092842095e-07  -1.0785433834615204e-06  -1.0133969388385867e-05  8.9128582879784732e-07  9.6250046335796669e-07  2.6101229728281082e-06  1.3050948072700884e-06  7.1300565820325585e-04  -8.0439469627528895e-06  -7.8416772186904856e-07  -6.6733575990284819e-06  -2.8217022205066251e-05  -1.5887603344869867e-07  -2.5637473285665622e-07  -4.0329208124749883e-07  -2.0151346062192517e-07  -4.6149146147864730e-07  -4.2133673864320291e-08  3.8624112109170120e-07  -8.4825883169766975e-07  -1.2104377272811309e-05  -1.4470950411385733e-05  -1.8989487997145166e-07  -6.9350878981922212e-07  3.2945560168858995e-07  -4.0633793523552042e-07  -1.0686874112734968e-03  -3.5329311794902207e-05  2.2973063949706381e-07  -5.0832856152172581e-06  -2.0545477342301144e-05  1.3974440866851044e-06  -4.6863753339770922e-07  -4.7902415370179769e-05  -8.2271217449926754e-04  -9.6711658105032555e-04  -7.5974954252378598e-04  7.6125446178565154e-07  -8.6668226036732462e-08  1.0652243976471102e-06  1.2540536631530448e-07  -4.7956059342454929e-08  1.2111320648210186e-07  -9.8227934969915269e-07  2.0581722498845231e-07  2.5492916363804949e-07  1.4744224164675926e-07  -9.7841781856688407e-07  2.6997973599113853e-07  1.7639945819300234e-06  7.1827885657207316e-07  4.1846660553482601e-07  -2.6803491804938870e-05  -1.8782211123364201e-05  2.4474506091451462e-07  2.4092911907069862e-07  -6.4756395174867055e-07  6.3396563442760970e-07  7.9432812083559049e-07  2.8801470770149344e-07  -1.6291479204765943e-06  -1.4336008708880936e-06  3.5560840764504241e-07  7.2067283436470916e-07  -7.4614282128990851e-07  -7.6939330184149287e-07  5.5748096316945152e-07  -7.0222440640253337e-09  -2.8920059839314819e-05  -9.2077666322102874e-05  1.9002325562628571e-03  -3.3304059575081683e-06  -1.1233931462605599e-06  -8.2157043265442072e-07  -5.1994619876857945e-07  -3.5155671586624872e-05  -1.7721007926341897e-06  8.3675535141008286e-07  -3.2516409313758035e-04  -9.7652748961837620e-06  -2.6255165819380014e-07  -1.1200258407797048e-08  8.3514766703183856e-07  -1.3324347472699046e-06  1.0344828596198312e-06  1.0512417735122165e-06  8.6074678699977233e-07  7.5006773229711107e-07  4.6495382599568876e-07  1.3949536648175279e-07  9.7553410588554623e-07  -8.9989402901974815e-07  6.0715090134569709e-07  -1.4924657252117184e-06  7.1563104414205519e-07  1.6556399071662487e-06  -1.8418428702450378e-07  5.6605193920286821e-07  6.4768843819631603e-07  2.4676896162711599e-06  -3.6085589662449950e-07  -2.2398777082915466e-06  -1.6765560407964888e-06  9.1650868798448744e-07  3.4613985875257010e-07  -3.4330476191720465e-08  -9.5387859749898913e-08  5.9012511503076690e-07  -7.22941420329839