<?xml version="1.0"?>
<VTKFile type="UnstructuredGrid"  version="0.1"  >
<UnstructuredGrid>
<Piece  NumberOfPoints="16808" NumberOfCells="31534">
<Points>
<DataArray  type="Float64"  NumberOfComponents="3"  format="ascii">0 12.7 0  0 0 0  0.2 0 0  0.2 12.7 0  0.2 6.35 0  0 6.35 0  0 3.175 0  0.2 3.175 0  0 9.524999999999999 0  0.2 9.524999999999999 0  0 11.1125 0  0.2 11.1125 0  0.2 1.5875 0  0 1.5875 0  0.2 4.762499999999999 0  0 4.762499999999999 0  0.2 7.937499999999999 0  0 7.937499999999999 0  0.2 10.31875 0  0 10.31875 0  0.2 11.90625 0  0 11.90625 0  0 5.556249999999999 0  0.2 5.556249999999999 0  0 0.79375 0  0.2 0.79375 0  0 2.38125 0  0.2 2.38125 0  0.2 7.143749999999999 0  0 7.143749999999999 0  0 8.731249999999999 0  0.2 8.731249999999999 0  0 3.96875 0  0.2 3.96875 0  0.2 11.509375 0  0 11.509375 0  0 10.715625 0  0.2 10.715625 0  0 7.540624999999999 0  0.2 7.540624999999999 0  0.2 2.778125 0  0 2.778125 0  0.2 5.159374999999999 0  0 5.159374999999999 0  0.2 5.953125 0  0 5.953125 0  0.2 8.334375 0  0 8.334375 0  0.2 0.396875 0  0 0.396875 0  0 1.190625 0  0.2 1.190625 0  0.2 3.571874999999999 0  0 3.571874999999999 0  0.2 4.365625 0  0 4.365625 0  0.2 1.984375 0  0 1.984375 0  0.2 6.746874999999999 0  0 6.746874999999999 0  0.2 9.128124999999999 0  0 9.128124999999999 0  0.2 9.921874999999998 0  0 9.921874999999998 0  0 12.303125 0  0.2 12.303125 0  0 11.7078125 0  0.2 11.7078125 0  0.2 10.5171875 0  0 10.5171875 0  0.2 8.135937499999999 0  0 8.135937499999999 0  0.2 5.754687499999999 0  0 5.754687499999999 0  0 5.3578125 0  0.2 5.3578125 0  0 7.739062499999999 0  0.2 7.739062499999999 0  0 3.770312499999999 0  0.2 3.770312499999999 0  0.2 1.3890625 0  0 1.3890625 0  0.2 2.579687499999999 0  0 2.579687499999999 0  0 2.9765625 0  0.2 2.9765625 0  0 4.1671875 0  0.2 4.1671875 0  0 0.1984375 0  0.2 0.1984375 0  0 0.5953124999999999 0  0.2 0.5953124999999999 0  0.2 1.7859375 0  0 1.7859375 0  0 2.1828125 0  0.2 2.1828125 0  0.2 0.9921874999999999 0  0 0.9921874999999999 0  0.2 12.1046875 0  0 12.1046875 0  0.2 12.5015625 0  0 12.5015625 0  0 9.723437499999999 0  0.2 9.723437499999999 0  0 8.9296875 0  0.2 8.9296875 0  0 9.326562499999998 0  0.2 9.326562499999998 0  0 6.548437499999999 0  0.2 6.548437499999999 0  0 6.945312499999999 0  0.2 6.945312499999999 0  0 3.3734375 0  0.2 3.3734375 0  0 8.532812499999999 0  0.2 8.532812499999999 0  0 6.1515625 0  0.2 6.1515625 0  0 4.564062499999999 0  0.2 4.564062499999999 0  0 4.960937499999999 0  0.2 4.960937499999999 0  0.2 7.342187499999999 0  0 7.342187499999999 0  0 10.1203125 0  0.2 10.1203125 0  0.2 10.9140625 0  0 10.9140625 0  0 11.3109375 0  0.2 11.3109375 0  0.1 10.81484375 0  0.1 12.00546875 0  0.1 5.85390625 0  0.1 8.235156249999999 0  0.1 8.632031249999999 0  0.1 8.83046875 0  0.1 9.425781249999998 0  0.1 9.624218749999999 0  0.1 10.21953125 0  0.1 10.41796875 0  0.1 10.61640625 0  0.1 11.60859375 0  0.1 11.80703125 0  0.1 11.41015625 0  0.1 5.258593749999999 0  0.1 7.639843749999999 0  0.1 12.7 0  0.1 4.067968749999999 0  0.1 2.87734375 0  0.09999999999999999 2.67890625 0  0.1 3.86953125 0  0.1 1.88515625 0  0.1 0.6945312499999999 0  0.1 1.28984375 0  0.1 1.48828125 0  0.1 2.08359375 0  0.1 0 0  0.1 0.29765625 0  0.1 0.8929687499999999 0  0.09999999999999999 1.09140625 0  0.1 0.4960937499999999 0  0.1 7.242968749999999 0  0.1 4.861718749999999 0  0.1 5.060156249999999 0  0.1 4.464843749999999 0  0.1 4.663281249999999 0  0.09999999999999999 3.47265625 0  0.1 6.846093749999999 0  0.1 7.044531249999999 0  0.1 6.449218749999999 0  0.1 6.647656249999999 0  0.09999999999999999 6.250781249999999 0  0.1 6.05234375 0  0.09999999999999996 1.68671875 0  0.1 4.266406249999999 0  0.1 3.07578125 0  0.09999999999999999 2.28203125 0  0.09999999999999996 2.48046875 0  0.1 3.671093749999999 0  0.1 3.27421875 0  0.09999999999999999 5.457031249999999 0  0.09999999999999996 5.65546875 0  0.09999999999999999 7.441406249999999 0  0.09999999999999999 7.838281249999999 0  0.09999999999999996 8.036718749999999 0  0.1 11.21171875 0  0.1 11.01328125 0  0.1 10.02109375 0  0.1 8.43359375 0  0.1 9.227343749999999 0  0.1 9.02890625 0  0.1 9.82265625 0  0.1 12.40234375 0  0.1 12.20390625 0  0.1 12.5755843996063 0  0 0.09921874999999999 0  0.2 0.09921874999999999 0  0.09999999999999999 0.148828125 0  0.09922180175781284 7.143749999999999 0  0 7.639843749999999 0  0.2 7.639843749999999 0  0 5.258593749999999 0  0.1007781982421872 5.159374999999999 0  0.2 5.258593749999999 0  0.09922180175781285 11.90625 0  0.09922180175781285 11.509375 0  0.1007781982421872 11.7078125 0  0 11.41015625 0  0 11.60859375 0  0.2 11.41015625 0  0.2 11.60859375 0  0.09922180175781285 10.715625 0  0.1007781982421872 10.5171875 0  0.1007781982421872 10.31875 0  0 10.41796875 0  0.2 10.41796875 0  0 10.21953125 0  0.2 10.21953125 0  0.1007781982421872 9.524999999999999 0  0 9.624218749999999 0  0.2 9.624218749999999 0  0 9.425781249999998 0  0.2 9.425781249999998 0  0.1007781982421872 5.953125 0  0.09922180175781285 8.135937499999999 0  0.1007781982421872 8.731249999999999 0  0 8.83046875 0  0.2 8.83046875 0  0 8.632031249999999 0  0.2 8.632031249999999 0  0.2 8.235156249999999 0  0 8.235156249999999 0  0.2 5.85390625 0  0 5.85390625 0  0 11.80703125 0  0 12.00546875 0  0.2 11.80703125 0  0.2 12.00546875 0  0 10.61640625 0  0 10.81484375 0  0.2 10.61640625 0  0.2 10.81484375 0  0.09922180175781287 5.556249999999999 0  0.1007781982421872 11.1125 0  0.09922180175781285 8.334375 0  0.09922180175781285 8.9296875 0  0.09922180175781285 9.723437499999999 0  0.2 12.60078125 0  0 12.60078125 0  0.1007781982421874 1.984375 0  0.1007781982421874 1.3890625 0  0 2.67890625 0  0 2.87734375 0  0.1007781982421874 2.5796875 0  0.2 2.67890625 0  0.2 2.87734375 0  0 3.86953125 0  0 4.067968749999999 0  0.1007781982421874 3.7703125 0  0.2 3.86953125 0  0.2 4.067968749999999 0  0.09922180175781263 2.9765625 0  0 2.08359375 0  0.2 2.08359375 0  0.2 1.48828125 0  0 1.48828125 0  0 1.28984375 0  0.2 1.28984375 0  0 0.6945312499999999 0  0.2 0.6945312499999999 0  0.2 1.88515625 0  0 1.88515625 0  0.09922180175781251 0.9921874999999999 0  0.1007781982421875 0.5953124999999999 0  0 0.29765625 0  0.2 0.29765625 0  0.1007781982421875 0.396875 0  0 0.4960937499999999 0  0.2 0.4960937499999999 0  0.2 1.09140625 0  0 1.09140625 0  0.1007781982421876 0.7937499999999998 0  0 0.8929687499999999 0  0.2 0.8929687499999999 0  0.1007781982421876 7.937499999999998 0  0 8.036718749999999 0  0.2 8.036718749999999 0  0 7.83828125 0  0.2 7.83828125 0  0.1007781982421876 7.739062499999999 0  0.09922180175781239 7.540624999999999 0  0.2 7.441406249999998 0  0.09922180175781239 7.3421875 0  0 7.441406249999998 0  0 5.655468749999999 0  0.09922180175781239 5.754687499999999 0  0.2 5.655468749999999 0  0 5.45703125 0  0.2 5.45703125 0  0.1007781982421876 5.3578125 0  0.1007781982421876 3.175 0  0.09922180175781241 3.571874999999999 0  0 3.671093749999999 0  0.2 3.671093749999999 0  0.1007781982421876 2.38125 0  0 2.48046875 0  0.2 2.48046875 0  0 2.28203125 0  0.2 2.28203125 0  0.1007781982421876 2.1828125 0  0 3.07578125 0  0.09922180175781242 1.5875 0  0 1.68671875 0  0.09922180175781239 1.7859375 0  0.2 1.68671875 0  0 6.05234375 0  0 6.250781249999999 0  0 6.44921875 0  0.2 6.05234375 0  0.2 6.250781249999999 0  0.1007781982421876 6.349999999999999 0  0.2 6.44921875 0  0.1007781982421876 6.548437499999999 0  0.09922180175781242 6.746874999999999 0  0.1007781982421876 6.945312499999998 0  0 6.647656249999999 0  0 6.84609375 0  0.2 6.647656249999999 0  0.2 6.84609375 0  0 3.27421875 0  0 3.47265625 0  0.2 3.07578125 0  0.2 3.27421875 0  0.1007781982421876 3.3734375 0  0.2 3.47265625 0  0.09922180175781244 4.167187499999999 0  0 4.266406249999999 0  0 4.46484375 0  0.2 4.266406249999999 0  0.1007781982421876 4.365625 0  0.2 4.46484375 0  0 5.060156249999999 0  0.2 5.060156249999999 0  0.1007781982421876 4.564062499999999 0  0.09922180175781242 4.762499999999999 0  0.1007781982421876 4.960937499999998 0  0 4.663281249999999 0  0 4.86171875 0  0.2 4.663281249999999 0  0.2 4.86171875 0  0.2 7.044531249999999 0  0.2 7.242968749999999 0  0 7.044531249999999 0  0 7.242968749999999 0  0.09922180175781239 1.190625 0  0.09922180175781241 3.96875 0  0.09922180175781241 2.778125 0  0.09922180175781195 12.303125 0  0.100778198242188 12.1046875 0  0 12.20390625 0  0 12.40234375 0  0.2 12.20390625 0  0.2 12.40234375 0  0 9.028906249999999 0  0 9.227343749999999 0  0.09922180175781198 9.128125000000001 0  0.09922180175781198 9.3265625 0  0.2 9.028906249999999 0  0.2 9.227343749999999 0  0 8.43359375 0  0.09922180175781198 8.5328125 0  0.2 8.43359375 0  0 9.822656249999998 0  0 10.02109375 0  0.09922180175781198 9.921875 0  0.09922180175781198 10.1203125 0  0.2 9.822656249999998 0  0.2 10.02109375 0  0.09922180175781196 10.9140625 0  0 11.01328125 0  0 11.21171875 0  0.09922180175781198 11.3109375 0  0.2 11.01328125 0  0.2 11.21171875 0  0.09922180175781198 6.1515625 0  0.08672180175781248 12.48896407480315 0  0.07461090087890626 0.2232421875 0  0.1253890991210938 0.0744140625 0  0.05038909912109379 4.3164077878937 0  0.1496109008789064 5.605467212106299 0  0.1496109008789064 8.0867202878937 0  0.05038909912109358 5.1101577878937 0  0.05038909912109338 4.514845287893699 0  0.05038909912109338 6.896095287893699 0  0.05038909912109338 6.499220287893699 0  0.05000000000000002 6.002734375 0  0.05000000000000002 3.819921874999999 0  0.1496109008789064 5.5070327878937 0  0.1499999999999996 7.391796874999998 0  0.05038909912109338 4.911720287893699 0  0.1496109008789069 9.971092212106297 0  0.1496109008789069 9.177342212106298 0  0.05038909912109314 12.0554702878937 0  0.149610900878906 12.2539077878937 0  0.05 12.7 0  0.1374999999999996 12.63779219980315 0  0.1496109008789064 9.772654712106299 0  0.1496109008789064 9.6742202878937 0  0.1496109008789064 8.978904712106299 0  0.1496109008789064 8.880470287893701 0  0.1496109008789064 8.383592212106299 0  0.1496109008789064 
[...]
<PointData  Scalars="sigma (Pa)"> 
<DataArray  type="Float64"  Name="sigma (Pa)"  format="ascii">4.7597321678085197e-02  4.6209136791491988e-02  -4.2005254657179372e-02  -4.5911934855660988e-02  -1.9544082751338332e-05  1.6544870300489833e-08  6.4776895879171787e-08  -5.8974273631145291e-07  5.2746123006176003e-07  3.0083601697988587e-07  -8.6967846410192192e-07  -3.4390411906501233e-06  3.4647018244723459e-07  -4.1231546301970409e-07  1.0077526381954640e-07  8.9945218353358692e-08  -5.1737269394815523e-06  -2.2572499238861520e-06  -6.2253025291268551e-08  -5.6470948192289471e-09  1.0263342763904083e-06  8.6851663553374248e-07  3.1768801346363484e-07  -2.4520810568178544e-04  -2.7756486626027509e-07  3.3899371906419010e-07  6.8335929520288973e-08  -5.3205630654042508e-07  -1.2634382618883998e-04  2.3985040198219118e-07  -1.0925534970937806e-06  -3.0828736760419474e-08  -1.7595341565334566e-06  -2.8528255194710747e-07  5.3595031148702922e-07  1.9745186230129391e-06  7.6274935628275150e-08  -1.4145474472488894e-08  1.1043636532361983e-05  -9.2041288223163465e-04  -2.4544912306831047e-07  -1.2830660883090926e-06  8.1551284685009429e-04  -1.9018570344045724e-05  -5.7851323960330545e-05  5.8202454735872479e-08  3.4092954583443446e-07  -3.2038213263855947e-07  8.5853971270886493e-08  -1.6723557538131332e-07  -2.2753752098599176e-07  -2.9781781401106983e-07  -5.5698667069871951e-08  6.3686499225499996e-07  -1.8427552374749582e-07  -8.0673691824258550e-08  -6.2531894717777314e-07  -7.6656193598059345e-08  3.4179859472587100e-05  5.9747211674869871e-10  1.9166747055701248e-08  3.1005200092584836e-07  4.5454833985826418e-08  5.9420198196420571e-07  4.3965271579722423e-07  2.0624777562010601e-06  4.9342696680548873e-07  -5.0262242146803629e-07  3.6073649261232278e-07  -1.2659373171395789e-06  -1.0112252836174761e-06  -3.1310160178948223e-06  -1.1867198375466241e-04  4.4935891367852831e-07  1.8608672554988551e-06  -8.6587836577165010e-04  -4.5788325688414693e-06  2.9586305341088650e-04  -3.0213295375601464e-07  6.4094684420271623e-07  -1.5652221675373954e-07  1.4208145143069884e-06  1.1282190883519579e-06  3.3079560169965080e-07  9.3840773919101035e-08  -1.0328893766052130e-07  -2.2157536713001488e-07  9.4342930234647399e-07  7.1389650708108306e-07  1.5185301355683353e-06  -2.6918082885959595e-07  2.3099825714911617e-07  -4.8469761186648210e-07  -1.1149080989992528e-07  9.5674546873174717e-07  -4.7914025992061907e-07  1.7711926115311455e-08  5.3195587057685936e-07  -3.6737972078390476e-08  2.1972612206175067e-07  -2.8626622268352921e-07  5.7679145721347047e-07  -8.4733302048412822e-08  5.1279422656279421e-07  5.5469600754579900e-07  3.7465278284195463e-07  2.6412691060197359e-07  -7.8492446570009657e-07  -5.6151951508142377e-08  -2.0018469017670022e-05  -1.7292743110434154e-07  -6.1852779213092057e-05  4.3825433470171565e-07  1.3953262740088532e-07  2.3265965710971577e-07  -5.0299400824837490e-07  1.1654221819852620e-07  2.3620775496634479e-05  -3.0205274961716404e-07  -1.5796768306048314e-06  -1.8691292156140536e-06  -5.7523601821584425e-06  -2.6044885259836283e-04  -4.6343545886020353e-07  2.8987052032126188e-07  -8.2501193332231544e-07  3.2424608673610139e-08  1.8430579341643794e-08  -1.6671348841403426e-06  4.2911806363798493e-07  -6.2246070898790083e-07  1.8343857602285123e-07  -2.2081465568309762e-05  -8.7067852411533201e-07  2.7802291832299483e-07  4.3886159769913959e-07  -9.8773427548461064e-07  2.5023042147068248e-08  -4.9866142640677850e-07  9.4386373333883576e-07  2.3953965349089425e-08  -5.6687642657329229e-07  2.1359535395769583e-07  -1.0699384347869945e-07  -1.0380156527122876e-03  -1.1327342829103330e-03  1.0354784146111143e-04  -1.0756850956664419e-06  2.8855777835018208e-07  -7.0976088476566702e-07  -7.6283039334799386e-08  1.2121570861500367e-07  -9.8719393729302107e-07  7.7456300872746856e-07  -5.3645336298974326e-07  -1.8383711733623482e-07  2.7988527002002810e-04  1.2580553192862329e-06  -5.9979327846323864e-07  1.0308078257619308e-06  -2.5295969464838023e-07  -5.3123375195440966e-05  -2.0376510423697445e-05  1.8087286152578339e-03  1.1638994407830585e-06  4.9018217002177626e-07  -1.2847597822470052e-06  -1.3302787967955256e-05  -2.4048183483449918e-05  -4.9969753591631206e-06  -8.3754916680481398e-06  -7.7783419023696963e-06  -1.2393560390231233e-05  -1.0323262868506639e-06  2.7217414678764328e-08  -5.6543465124211498e-07  1.0099814264965238e-07  9.3914535591151518e-08  4.6208720834627354e-07  1.5450753668714106e-06  -1.5211880816122742e-04  -4.5733815133958579e-05  -1.6231596496010529e-04  1.9408947426910940e-03  -1.8781290258026180e-05  4.3889460259216619e-07  -7.7214764269297852e-07  -7.4271243627210087e-07  1.9989066451840386e-07  -4.9504931208376030e-07  3.1190820644297488e-07  7.8939890713404177e-07  3.1960118967471668e-06  -9.9297329515289352e-08  -6.2077176221895614e-06  1.0202120406240042e-05  3.6564689350781516e-06  -4.5061799475011745e-06  -3.5269606864094923e-05  2.2759170298731951e-05  -1.5067283142833922e-03  -5.1932827712722561e-06  8.8954100127932058e-05  -1.3782310689634022e-03  -5.8498297170434259e-07  2.6628217192338446e-07  -2.5975454647558873e-07  -1.0632209096398131e-06  1.8873398728434383e-07  2.2468224366489385e-07  9.9787216067054789e-08  -1.3118739672908334e-06  3.2127066389549762e-07  -8.4841357322143728e-07  1.4779069307597318e-06  -3.2133147846449656e-07  -1.2981932469465138e-06  -4.8175271931069306e-07  1.3974237562764855e-06  -1.1152731253342682e-07  1.1382582567529118e-07  7.8897631367906614e-07  1.4682484696035096e-07  -1.6656207595147501e-05  -3.0576094199706270e-06  1.6214355944917717e-07  8.6701861659990812e-07  -8.3853173789431319e-07  2.0056604765815954e-07  -2.3396556936929556e-07  -5.0490766604895214e-07  -5.7802339352013695e-07  -8.1710973875631250e-05  4.3898322165434062e-08  -1.9766995764773812e-06  -3.0294124500742308e-07  5.5983773624792549e-07  -3.7713683725238501e-08  7.2227878865721634e-07  -1.4169976744890328e-06  4.8973420181907008e-08  3.0069827845527629e-08  -5.3442617282110593e-05  -2.2567647970823191e-07  -5.0519980997035278e-07  -3.2775292036292187e-07  -1.3301079483780164e-06  3.6316260371332366e-06  4.2424589614111389e-06  9.2922890746574834e-07  1.6208151604250152e-06  4.0758456115772437e-08  1.2478146662162270e-06  1.5143516966850042e-06  1.3127201817735376e-06  -7.2365156897474123e-09  2.8233911155722097e-07  -2.2581482846009633e-07  1.3907474291796672e-06  -8.6317655678807544e-08  -1.5337529802638839e-06  -1.4173388506241322e-07  -8.1947205126059847e-07  7.8619992810183617e-07  8.0578808768654685e-07  1.2504336945869667e-06  -3.3007551743704025e-07  3.6309915622275112e-08  -5.3597790686444883e-07  -4.1762459566207610e-07  4.0888437974786185e-07  -1.4373598873130901e-06  -3.2546143258518654e-07  5.2203285422464163e-08  -2.8775390951565493e-07  2.0964690010603107e-06  9.5463349501907115e-07  1.4736229497286693e-06  3.4073204221765412e-07  9.7857119195034729e-07  -2.8308301090041483e-08  7.1960680427127392e-07  6.1033640723910537e-07  -1.3163597544045471e-07  1.7013428014850241e-04  -2.5087965428180664e-07  1.9559814176569085e-07  -1.8575532721859580e-05  -4.7699119009251043e-04  7.8071516328373549e-05  -4.9877184382129264e-04  -4.7945887348109099e-04  -5.3625842921822317e-05  -4.8619212352785453e-07  -2.7992461178003500e-07  -3.3768975376210747e-05  -4.9334721705091792e-04  9.9332290403660935e-07  -4.4723035919617488e-04  -4.7728373806934740e-04  8.8551578115507712e-07  -5.5334178166930829e-07  5.2310864365808629e-07  -7.7785231374959816e-08  1.0065986364839777e-07  -6.7203778695292577e-07  5.1683199946026320e-07  -3.0836504609006398e-07  -2.5061805922305893e-10  8.2580440896231042e-07  -1.6976253777151887e-07  4.6990451454864416e-07  4.5100339420787547e-07  8.3926842272616554e-07  1.5772828353044421e-06  -1.3784091780474354e-07  -4.7369816760352761e-09  3.1139930226749347e-08  -4.1643469940116051e-05  -2.5214682932220106e-05  -5.5297537433356770e-06  -1.8251088229274959e-05  -5.6856235629496755e-06  -6.4585201328505336e-06  -1.8015233817167538e-05  8.2496188882263847e-08  1.0628861486757802e-08  -2.5980900221792102e-05  -4.4975918073494332e-05  -5.1840273575570941e-07  -2.4292926688974003e-07  3.4928923952578873e-07  4.0289433159937652e-07  3.5316284219265564e-07  9.3423567481728760e-07  4.1081746184411615e-08  2.0337879608637617e-06  2.3599421581203267e-07  -2.7604912434366206e-07  -2.3559124182192605e-07  7.3177302832725543e-07  -2.0959916978497593e-05  -3.6508747013408590e-04  1.7420346453610093e-06  -4.9863381745699530e-06  1.4443707221180603e-04  -3.8070881991638989e-07  -1.2533794233449105e-06  1.0707188481930419e-06  8.2079880653459685e-07  -8.7578173706660310e-05  8.0418792816747196e-04  1.6234358493954008e-07  -9.1181843895982718e-08  1.0811815828598508e-07  1.5463532496760109e-07  1.1878767914560850e-06  -6.5286131941496685e-07  9.6443307894990018e-07  -1.5606696732148960e-06  -2.7574305702685567e-06  -1.6554227919966363e-07  4.0939251558878584e-07  3.3633998931444655e-07  -7.5080456357217055e-07  -7.1599881219763093e-07  -1.0242735411057404e-07  4.6387131231881254e-07  8.4484542839473470e-07  -2.3412684421903885e-06  -4.5588649461030061e-07  2.4786036143124124e-07  4.4224434863309759e-07  -3.8206496903596667e-08  -4.9781935681956307e-07  3.7809263242727759e-08  1.3233864803159986e-07  1.7598763018800549e-06  -9.7861341359208502e-07  -2.3903305341510520e-06  -3.9067619117744313e-07  1.4054540951737995e-08  1.2077142096212051e-07  2.6838826791788291e-07  -6.3086873721307258e-06  -6.1431516984978553e-06  -4.3479692011067796e-06  8.5184407775739204e-05  1.3936202981263132e-06  -4.4457895444735570e-05  -6.4077840798772799e-06  5.1753030409958610e-04  4.1112268845459051e-07  -4.2494059264162811e-06  -1.3272161200663839e-06  -3.7386083986171510e-06  6.0759004018883053e-07  -1.9690341831088952e-04  -2.1390949323410579e-04  -3.3515494347968086e-07  8.6006581372103828e-07  -4.8323595583984341e-07  -3.8719768720245533e-07  1.5304143261996547e-07  8.2230187225619863e-03  -3.0038410871346094e-05  8.2530064098021941e-07  -2.2918596414721224e-07  -1.1834095578781556e-07  -1.0602420508196300e-06  3.0461886834933942e-07  -1.6041764866293068e-06  3.3394950023648576e-07  7.5012711111850362e-07  3.2001852638617580e-07  -1.2573832530036900e-06  -5.2735162053437876e-07  -4.2184962547865084e-08  -2.8975000349747946e-07  -4.7368089449196461e-06  -5.6881493383639499e-05  4.9115179580198373e-08  2.2988385783922680e-07  3.3499211511196664e-07  6.7526834102110452e-07  1.1270765998256143e-06  -8.0298476601002610e-07  -8.8297018604360654e-07  -1.2566179350157801e-06  -1.5901912074568785e-07  1.5385280867599846e-06  -3.5585600246307166e-07  3.0362031977036986e-07  -2.6338161022490195e-07  8.9621931909976955e-07  -1.4521997153999769e-07  3.4972546283256970e-07  -8.1013131829734190e-07  -3.1960593517361513e-04  -2.6780137474136475e-04  -1.2025225393304171e-03  -3.3837171450663042e-04  -1.0432584978122042e-06  -4.0583437246246909e-07  3.0264778602736192e-04  -6.7087544147304425e-07  -3.7138946785829710e-09  -9.4054303803882771e-05  -1.7082218920034820e-06  -6.1527599984216114e-05  -1.0570080025205640e-06  -2.0489690001152030e-05  -7.4161685857498447e-07  -1.0703592683003306e-06  8.2266034215338243e-07  7.2943256046769243e-07  -8.3881895181332850e-07  1.7619178959376234e-07  6.2916982900677486e-07  -2.6360142357793839e-07  4.4012460213163481e-07  7.1114131798654823e-03  1.8645962300540314e-07  1.3585192548424303e-06  2.4951718796632731e-07  6.2518354424549766e-07  5.1423738393628435e-07  -4.5873075168189350e-07  -1.4696738009875308e-07  4.7678610441739917e-07  1.8107597655132323e-07  -8.0019405271056747e-07  1.0018319321732814e-06  -5.0810885050969612e-07  -4.9079736533133623e-08  2.3534267998122980e-07  1.4336352759835260e-06  7.4833024234341512e-07  7.4806419506736698e-07  4.5083729497150773e-07  -6.1455595339575148e-07  -7.6279689048551047e-07  1.0264353954612007e-07  -1.2342913621925943e-06  -8.4979395843116285e-07  -5.5846671454615275e-07  2.6971755293940964e-07  5.8430765821185674e-08  6.5883700476396413e-07  -5.3458870239755024e-06  2.8619403762225685e-07  2.7911270171505334e-04  -1.7722608744454838e-06  -9.2864236392971506e-05  7.3661351961623286e-07  -1.3508411329358742e-06  -4.8529745674697329e-04  -1.8978483830212216e-05  -2.2572739081906600e-05  -3.4811718727854429e-05  -6.9283999500341486e-06  -2.4010459951658580e-05  -8.1311164757743996e-05  5.7116847346598445e-04  -6.5466114363052331e-07  -2.0678271194276939e-07  1.0826768609791006e-06  -1.4436608588636582e-06  -5.9938873219906294e-07  1.6439506780753695e-06  -1.4724174119129815e-06  7.0615017860852119e-07  9.7620918660068013e-07  -4.8711569323704580e-07  -3.3547960876659312e-08  1.1117784038514936e-06  -7.3866934009801195e-07  -1.1006964696141703e-05  -1.2598087809987743e-06  -8.5501371027943431e-07  -8.8940754058802572e-08  -2.9926094633147606e-05  -5.5669113498721852e-06  7.4140581671244882e-08  5.0978430766700055e-07  -4.6187131097287460e-07  1.5986925975143525e-06  3.4097778239556734e-08  -4.0331794810919293e-07  1.1225437722124784e-06  7.0864079555519319e-08  1.9050076554881977e-07  -4.1165981190429480e-05  -1.0825026940869111e-06  1.3404775128663664e-07  2.8345634400057227e-07  1.4943850516631863e-06  8.1862246043537031e-07  1.4270680478370601e-06  5.3326080132763366e-07  2.4347028266582387e-07  -1.7354072838406956e-07  -1.7975041161816484e-07  1.1279235268167823e-06  -1.6157773875827752e-03  4.7965074195666342e-03  -1.2833393723312913e-05  -7.2158230258039507e-06  -1.7242963884403241e-07  4.6745878124998870e-07  -2.5707996636868121e-07  -1.0673960033989628e-06  -5.5719278180371084e-06  -1.2453498508737994e-06  -2.4571473557395552e-06  -2.0149425981079845e-06  -7.4686503489811048e-06  -4.4110068571773398e-05  1.7267853383062161e-07  5.3151144454138865e-04  6.5236078437573634e-07  7.7263601666590090e-07  -1.3314142374340483e-05  -4.5099135277065387e-04  -1.1260327007855773e-03  -6.8427035836763453e-06  -1.1964393743885115e-05  -8.8393383662177405e-05  -2.7716870683357767e-04  -1.7688597370974501e-03  -4.8007395783110655e-07  6.2595797311149350e-07  2.1004575385272581e-07  8.8901061805856032e-07  5.2412808484185057e-03  -7.0657175422328717e-06  2.6641006508403905e-07  7.3488202861337528e-07  2.7636168851765529e-07  -4.6776619867014582e-07  3.1311610948236928e-07  7.5089693224807940e-07  4.7276806099594198e-08  -8.4575091297305772e-07  -7.7031086038701461e-07  4.3539017985760741e-07  5.4150861173751881e-07  -2.6092663674590527e-06  8.6864755699636863e-07  2.5440126828196615e-07  -6.9475687806006497e-07  -2.6646417229430574e-07  -2.8842571325825183e-07  -8.1181201732494383e-07  -2.1638844685005069e-05  -6.1646533186197790e-06  -5.2016204310654919e-07  -5.1253030200202513e-07  -4.1330831227186386e-07  -4.4386362931415291e-07  -1.7357724186345076e-06  6.7466116952681176e-07  -1.1553510208720452e-06  6.8217791297823764e-07  -2.8269375251953317e-07  -8.7648988569222777e-07  1.1760183208673040e-07  -4.0751114527438727e-07  -4.4066320547821602e-07  -5.3872070240780068e-07  8.2904790446062059e-07  1.1204727939433853e-06  6.2790361165126185e-07  4.0888887912642688e-07  6.6739027442761181e-07  -5.7071770155838460e-07  1.9790735100967905e-06  -1.6121681671259331e-07  -1.3005212701758303e-05  -1.8398141284909678e-06  -2.3646974745346759e-06  -3.8020655702588950e-07  -1.2106592138480662e-08  -8.5185079386565899e-06  3.2285818064514575e-07  -3.2510918522529045e-05  -1.1225651790488252e-05  -2.3694582491550108e-05  5.4387488407050199e-04  -5.8459043606217350e-07  -4.4913874453465890e-07  -3.8266985064516870e-07  1.5109951905046050e-07  6.5957635887839633e-08  -6.5209443070990878e-07  8.9637186621352326e-07  1.1073926767969636e-06  8.5896542596033797e-05  -1.3201400539275608e-04  -3.3658184829136956e-05  1.5517527711721703e-05  1.3137246160156900e-06  4.4648689854451614e-06  -1.3165076245702062e-06  7.8591113061093138e-06  3.2247343837610874e-05  -7.8834828857336035e-05  -6.7443761608910139e-03  -2.0448451314330256e-05  1.3702183583355788e-07  5.9260440634145777e-07  8.5386222442883597e-05  1.2168244723571067e-04  4.7436888692717149e-04  2.9007717817892030e-07  5.7194409235797555e-04  -1.2593175560985626e-06  -2.4716021099989102e-07  -7.4397786314255162e-03  2.1612901970245462e-07  -5.3460161803546016e-08  -9.5388681964568372e-07  -1.0138309623516496e-06  -1.3470780482694841e-07  -2.7901130532132907e-07  8.3289402076566962e-07  1.5081702127733821e-06  -3.1715598068088515e-07  2.2117995986842300e-07  -1.6797710331343025e-07  -1.2315463832098692e-05  -3.5984117421650979e-06  9.5737596966545249e-07  -2.9195276312837798e-08  -3.6836556167152927e-04  -1.4727675017596370e-04  5.5208239904331353e-07  -3.8843494438857163e-07  7.4667953700428130e-07  -5.7282203077762211e-07  1.2622783476216189e-06  -9.7141104589081658e-07  4.4254067436873351e-07  -1.3295088855505994e-04  -6.3737801519626135e-07  2.7996817289280631e-07  -1.2856704093998153e-07  6.1963855757906998e-04  -2.6107086631591240e-05  -1.8181244943039674e-07  2.6912803733918556e-07  -2.5557237127070572e-07  1.2918989602537803e-08  7.4707495172988299e-07  4.2548434227059852e-08  -3.5354505693268195e-07  -6.6323531771184390e-07  5.0675938443319637e-07  -2.7269103247451365e-07  -2.8709249325991698e-04  -1.6919597272378502e-06  -1.3080329405269873e-05  -1.5602051701169815e-07  -1.0761041069375306e-06  -1.0111050171358183e-05  8.8927020205602563e-07  9.6032375998408525e-07  2.6042193315521981e-06  1.3021438618508136e-06  7.1139309205629254e-04  -8.0257545418566455e-06  -7.8239485675583248e-07  -6.6582645771759609e-06  -2.8153205508795619e-05  -1.5851667420150757e-07  -2.5579485126219011e-07  -4.0237996069761310e-07  -2.0105772187488749e-07  -4.6044757498472817e-07  -4.2038625510958140e-08  3.8536757344825539e-07  -8.4633991360633021e-07  -1.2077002005066175e-05  -1.4438221981505715e-05  -1.8946532577975799e-07  -6.9194043088218059e-07  3.2871046701729804e-07  -4.0541876175720308e-07  -1.0662704187857186e-03  -3.5249408173361749e-05  2.2921086606969619e-07  -5.0717892507740111e-06  -2.0499011068815320e-05  1.3942838000286691e-06  -4.6757788449669632e-07  -4.7794077449230314e-05  -8.2085149121448623e-04  -9.6492930628241762e-04  -7.5803125740097797e-04  7.5953281399268885e-07  -8.6472166688937532e-08  1.0628151512053439e-06  1.2512172648700775e-07  -4.7847650517571952e-08  1.2083980033445157e-07  -9.8005803697995060e-07  2.0535177048684596e-07  2.5435289151767202e-07  1.4710874797967021e-07  -9.7620486086378061e-07  2.6936954653784022e-07  1.7600050832529475e-06  7.1665417337655670e-07  4.1752041823041486e-07  -2.6742871489029951e-05  -1.8739731689540860e-05  2.4419153658656045e-07  2.4038407742760579e-07  -6.4609933369085199e-07  6.3253175377074066e-07  7.9253152246179498e-07  2.8736378723396392e-07  -1.6254625720854249e-06  -1.4303594235477662e-06  3.5480390787477805e-07  7.1904304237695431e-07  -7.4445581231196248e-07  -7.6765375930072819e-07  5.5621999201048623e-07  -7.0063677037384946e-09  -2.8854652983394063e-05  -9.1869418592242382e-05  1.8959349038554336e-03  -3.3228733716357851e-06  -1.1208523720298106e-06  -8.1971208631653396e-07  -5.1877033174758711e-07  -3.5076161883791861e-05  -1.7680929417295776e-06  8.3486252293143855e-07  -3.2442868797049614e-04  -9.7431902565182050e-06  -2.6195787093740400e-07  -1.1174839259218978e-08  8.3325884885909135e-07  -1.3294213013993756e-06  1.0321432941582505e-06  1.0488640812473881e-06  8.5879974667525209e-07  7.4837114889840407e-07  4.6390232872743131e-07  1.3917987867207055e-07  9.7332775233797159e-07  -8.9785878277387640e-07  6.0577773379227216e-07  -1.4890903336431003e-06  7.1401254548716480e-07  1.6518954488844286e-06  -1.8376772563968787e-07  5.6477173518272082e-07  6.4622359342274661e-07  2.4621085889628172e-06  -3.6003912071890717e-07  -2.2348118004626636e-06  -1.6727647947996489e-06  9.1443576929476697e-07  3.4535687319319059e-07  -3.4252863787272644e-08  -9.5171988962188330e-08  5.8879089747944573e-07  -7.21306228165157