<?xml version="1.0"?>
<VTKFile type="UnstructuredGrid"  version="0.1"  >
<UnstructuredGrid>
<Piece  NumberOfPoints="16808" NumberOfCells="31534">
<Points>
<DataArray  type="Float64"  NumberOfComponents="3"  format="ascii">0 12.7 0  0 0 0  0.2 0 0  0.2 12.7 0  0.2 6.35 0  0 6.35 0  0 3.175 0  0.2 3.175 0  0 9.524999999999999 0  0.2 9.524999999999999 0  0 11.1125 0  0.2 11.1125 0  0.2 1.5875 0  0 1.5875 0  0.2 4.762499999999999 0  0 4.762499999999999 0  0.2 7.937499999999999 0  0 7.937499999999999 0  0.2 10.31875 0  0 10.31875 0  0.2 11.90625 0  0 11.90625 0  0 5.556249999999999 0  0.2 5.556249999999999 0  0 0.79375 0  0.2 0.79375 0  0 2.38125 0  0.2 2.38125 0  0.2 7.143749999999999 0  0 7.143749999999999 0  0 8.731249999999999 0  0.2 8.731249999999999 0  0 3.96875 0  0.2 3.96875 0  0.2 11.509375 0  0 11.509375 0  0 10.715625 0  0.2 10.715625 0  0 7.540624999999999 0  0.2 7.540624999999999 0  0.2 2.778125 0  0 2.778125 0  0.2 5.159374999999999 0  0 5.159374999999999 0  0.2 5.953125 0  0 5.953125 0  0.2 8.334375 0  0 8.334375 0  0.2 0.396875 0  0 0.396875 0  0 1.190625 0  0.2 1.190625 0  0.2 3.571874999999999 0  0 3.571874999999999 0  0.2 4.365625 0  0 4.365625 0  0.2 1.984375 0  0 1.984375 0  0.2 6.746874999999999 0  0 6.746874999999999 0  0.2 9.128124999999999 0  0 9.128124999999999 0  0.2 9.921874999999998 0  0 9.921874999999998 0  0 12.303125 0  0.2 12.303125 0  0 11.7078125 0  0.2 11.7078125 0  0.2 10.5171875 0  0 10.5171875 0  0.2 8.135937499999999 0  0 8.135937499999999 0  0.2 5.754687499999999 0  0 5.754687499999999 0  0 5.3578125 0  0.2 5.3578125 0  0 7.739062499999999 0  0.2 7.739062499999999 0  0 3.770312499999999 0  0.2 3.770312499999999 0  0.2 1.3890625 0  0 1.3890625 0  0.2 2.579687499999999 0  0 2.579687499999999 0  0 2.9765625 0  0.2 2.9765625 0  0 4.1671875 0  0.2 4.1671875 0  0 0.1984375 0  0.2 0.1984375 0  0 0.5953124999999999 0  0.2 0.5953124999999999 0  0.2 1.7859375 0  0 1.7859375 0  0 2.1828125 0  0.2 2.1828125 0  0.2 0.9921874999999999 0  0 0.9921874999999999 0  0.2 12.1046875 0  0 12.1046875 0  0.2 12.5015625 0  0 12.5015625 0  0 9.723437499999999 0  0.2 9.723437499999999 0  0 8.9296875 0  0.2 8.9296875 0  0 9.326562499999998 0  0.2 9.326562499999998 0  0 6.548437499999999 0  0.2 6.548437499999999 0  0 6.945312499999999 0  0.2 6.945312499999999 0  0 3.3734375 0  0.2 3.3734375 0  0 8.532812499999999 0  0.2 8.532812499999999 0  0 6.1515625 0  0.2 6.1515625 0  0 4.564062499999999 0  0.2 4.564062499999999 0  0 4.960937499999999 0  0.2 4.960937499999999 0  0.2 7.342187499999999 0  0 7.342187499999999 0  0 10.1203125 0  0.2 10.1203125 0  0.2 10.9140625 0  0 10.9140625 0  0 11.3109375 0  0.2 11.3109375 0  0.1 10.81484375 0  0.1 12.00546875 0  0.1 5.85390625 0  0.1 8.235156249999999 0  0.1 8.632031249999999 0  0.1 8.83046875 0  0.1 9.425781249999998 0  0.1 9.624218749999999 0  0.1 10.21953125 0  0.1 10.41796875 0  0.1 10.61640625 0  0.1 11.60859375 0  0.1 11.80703125 0  0.1 11.41015625 0  0.1 5.258593749999999 0  0.1 7.639843749999999 0  0.1 12.7 0  0.1 4.067968749999999 0  0.1 2.87734375 0  0.09999999999999999 2.67890625 0  0.1 3.86953125 0  0.1 1.88515625 0  0.1 0.6945312499999999 0  0.1 1.28984375 0  0.1 1.48828125 0  0.1 2.08359375 0  0.1 0 0  0.1 0.29765625 0  0.1 0.8929687499999999 0  0.09999999999999999 1.09140625 0  0.1 0.4960937499999999 0  0.1 7.242968749999999 0  0.1 4.861718749999999 0  0.1 5.060156249999999 0  0.1 4.464843749999999 0  0.1 4.663281249999999 0  0.09999999999999999 3.47265625 0  0.1 6.846093749999999 0  0.1 7.044531249999999 0  0.1 6.449218749999999 0  0.1 6.647656249999999 0  0.09999999999999999 6.250781249999999 0  0.1 6.05234375 0  0.09999999999999996 1.68671875 0  0.1 4.266406249999999 0  0.1 3.07578125 0  0.09999999999999999 2.28203125 0  0.09999999999999996 2.48046875 0  0.1 3.671093749999999 0  0.1 3.27421875 0  0.09999999999999999 5.457031249999999 0  0.09999999999999996 5.65546875 0  0.09999999999999999 7.441406249999999 0  0.09999999999999999 7.838281249999999 0  0.09999999999999996 8.036718749999999 0  0.1 11.21171875 0  0.1 11.01328125 0  0.1 10.02109375 0  0.1 8.43359375 0  0.1 9.227343749999999 0  0.1 9.02890625 0  0.1 9.82265625 0  0.1 12.40234375 0  0.1 12.20390625 0  0.1 12.5755843996063 0  0 0.09921874999999999 0  0.2 0.09921874999999999 0  0.09999999999999999 0.148828125 0  0.09922180175781284 7.143749999999999 0  0 7.639843749999999 0  0.2 7.639843749999999 0  0 5.258593749999999 0  0.1007781982421872 5.159374999999999 0  0.2 5.258593749999999 0  0.09922180175781285 11.90625 0  0.09922180175781285 11.509375 0  0.1007781982421872 11.7078125 0  0 11.41015625 0  0 11.60859375 0  0.2 11.41015625 0  0.2 11.60859375 0  0.09922180175781285 10.715625 0  0.1007781982421872 10.5171875 0  0.1007781982421872 10.31875 0  0 10.41796875 0  0.2 10.41796875 0  0 10.21953125 0  0.2 10.21953125 0  0.1007781982421872 9.524999999999999 0  0 9.624218749999999 0  0.2 9.624218749999999 0  0 9.425781249999998 0  0.2 9.425781249999998 0  0.1007781982421872 5.953125 0  0.09922180175781285 8.135937499999999 0  0.1007781982421872 8.731249999999999 0  0 8.83046875 0  0.2 8.83046875 0  0 8.632031249999999 0  0.2 8.632031249999999 0  0.2 8.235156249999999 0  0 8.235156249999999 0  0.2 5.85390625 0  0 5.85390625 0  0 11.80703125 0  0 12.00546875 0  0.2 11.80703125 0  0.2 12.00546875 0  0 10.61640625 0  0 10.81484375 0  0.2 10.61640625 0  0.2 10.81484375 0  0.09922180175781287 5.556249999999999 0  0.1007781982421872 11.1125 0  0.09922180175781285 8.334375 0  0.09922180175781285 8.9296875 0  0.09922180175781285 9.723437499999999 0  0.2 12.60078125 0  0 12.60078125 0  0.1007781982421874 1.984375 0  0.1007781982421874 1.3890625 0  0 2.67890625 0  0 2.87734375 0  0.1007781982421874 2.5796875 0  0.2 2.67890625 0  0.2 2.87734375 0  0 3.86953125 0  0 4.067968749999999 0  0.1007781982421874 3.7703125 0  0.2 3.86953125 0  0.2 4.067968749999999 0  0.09922180175781263 2.9765625 0  0 2.08359375 0  0.2 2.08359375 0  0.2 1.48828125 0  0 1.48828125 0  0 1.28984375 0  0.2 1.28984375 0  0 0.6945312499999999 0  0.2 0.6945312499999999 0  0.2 1.88515625 0  0 1.88515625 0  0.09922180175781251 0.9921874999999999 0  0.1007781982421875 0.5953124999999999 0  0 0.29765625 0  0.2 0.29765625 0  0.1007781982421875 0.396875 0  0 0.4960937499999999 0  0.2 0.4960937499999999 0  0.2 1.09140625 0  0 1.09140625 0  0.1007781982421876 0.7937499999999998 0  0 0.8929687499999999 0  0.2 0.8929687499999999 0  0.1007781982421876 7.937499999999998 0  0 8.036718749999999 0  0.2 8.036718749999999 0  0 7.83828125 0  0.2 7.83828125 0  0.1007781982421876 7.739062499999999 0  0.09922180175781239 7.540624999999999 0  0.2 7.441406249999998 0  0.09922180175781239 7.3421875 0  0 7.441406249999998 0  0 5.655468749999999 0  0.09922180175781239 5.754687499999999 0  0.2 5.655468749999999 0  0 5.45703125 0  0.2 5.45703125 0  0.1007781982421876 5.3578125 0  0.1007781982421876 3.175 0  0.09922180175781241 3.571874999999999 0  0 3.671093749999999 0  0.2 3.671093749999999 0  0.1007781982421876 2.38125 0  0 2.48046875 0  0.2 2.48046875 0  0 2.28203125 0  0.2 2.28203125 0  0.1007781982421876 2.1828125 0  0 3.07578125 0  0.09922180175781242 1.5875 0  0 1.68671875 0  0.09922180175781239 1.7859375 0  0.2 1.68671875 0  0 6.05234375 0  0 6.250781249999999 0  0 6.44921875 0  0.2 6.05234375 0  0.2 6.250781249999999 0  0.1007781982421876 6.349999999999999 0  0.2 6.44921875 0  0.1007781982421876 6.548437499999999 0  0.09922180175781242 6.746874999999999 0  0.1007781982421876 6.945312499999998 0  0 6.647656249999999 0  0 6.84609375 0  0.2 6.647656249999999 0  0.2 6.84609375 0  0 3.27421875 0  0 3.47265625 0  0.2 3.07578125 0  0.2 3.27421875 0  0.1007781982421876 3.3734375 0  0.2 3.47265625 0  0.09922180175781244 4.167187499999999 0  0 4.266406249999999 0  0 4.46484375 0  0.2 4.266406249999999 0  0.1007781982421876 4.365625 0  0.2 4.46484375 0  0 5.060156249999999 0  0.2 5.060156249999999 0  0.1007781982421876 4.564062499999999 0  0.09922180175781242 4.762499999999999 0  0.1007781982421876 4.960937499999998 0  0 4.663281249999999 0  0 4.86171875 0  0.2 4.663281249999999 0  0.2 4.86171875 0  0.2 7.044531249999999 0  0.2 7.242968749999999 0  0 7.044531249999999 0  0 7.242968749999999 0  0.09922180175781239 1.190625 0  0.09922180175781241 3.96875 0  0.09922180175781241 2.778125 0  0.09922180175781195 12.303125 0  0.100778198242188 12.1046875 0  0 12.20390625 0  0 12.40234375 0  0.2 12.20390625 0  0.2 12.40234375 0  0 9.028906249999999 0  0 9.227343749999999 0  0.09922180175781198 9.128125000000001 0  0.09922180175781198 9.3265625 0  0.2 9.028906249999999 0  0.2 9.227343749999999 0  0 8.43359375 0  0.09922180175781198 8.5328125 0  0.2 8.43359375 0  0 9.822656249999998 0  0 10.02109375 0  0.09922180175781198 9.921875 0  0.09922180175781198 10.1203125 0  0.2 9.822656249999998 0  0.2 10.02109375 0  0.09922180175781196 10.9140625 0  0 11.01328125 0  0 11.21171875 0  0.09922180175781198 11.3109375 0  0.2 11.01328125 0  0.2 11.21171875 0  0.09922180175781198 6.1515625 0  0.08672180175781248 12.48896407480315 0  0.07461090087890626 0.2232421875 0  0.1253890991210938 0.0744140625 0  0.05038909912109379 4.3164077878937 0  0.1496109008789064 5.605467212106299 0  0.1496109008789064 8.0867202878937 0  0.05038909912109358 5.1101577878937 0  0.05038909912109338 4.514845287893699 0  0.05038909912109338 6.896095287893699 0  0.05038909912109338 6.499220287893699 0  0.05000000000000002 6.002734375 0  0.05000000000000002 3.819921874999999 0  0.1496109008789064 5.5070327878937 0  0.1499999999999996 7.391796874999998 0  0.05038909912109338 4.911720287893699 0  0.1496109008789069 9.971092212106297 0  0.1496109008789069 9.177342212106298 0  0.05038909912109314 12.0554702878937 0  0.149610900878906 12.2539077878937 0  0.05 12.7 0  0.1374999999999996 12.63779219980315 0  0.1496109008789064 9.772654712106299 0  0.1496109008789064 9.6742202878937 0  0.1496109008789064 8.978904712106299 0  0.1496109008789064 8.880470287893701 0  0.1496109008789064 8.383592212106299 0  0.1496109008789064 
[...]
<PointData  Scalars="sigma (Pa)"> 
<DataArray  type="Float64"  Name="sigma (Pa)"  format="ascii">4.7707988260355293e-02  4.6316575761967231e-02  -4.2102919353564458e-02  -4.6018682814095657e-02  -1.9589521241497737e-05  1.6581964667557966e-08  6.4926675892942036e-08  -5.9111363605053744e-07  5.2868800666664566e-07  3.0153451938999727e-07  -8.7170069442851993e-07  -3.4470372376485131e-06  3.4727579107942231e-07  -4.1327407068263003e-07  1.0100843060157497e-07  9.0155285638745988e-08  -5.1857552099657963e-06  -2.2624974759170891e-06  -6.2397708538827714e-08  -5.6608423868646775e-09  1.0287205712128877e-06  8.7053599361755953e-07  3.1842635711624113e-07  -2.4577822870359333e-04  -2.7821030955545134e-07  3.3978192677983834e-07  6.8494498411405025e-08  -5.3329327880094304e-07  -1.2663758238601601e-04  2.4040812844026396e-07  -1.0950938349296157e-06  -3.0899743828935889e-08  -1.7636247796931729e-06  -2.8594561008784515e-07  5.3719643816231249e-07  1.9791094939206421e-06  7.6452343628322968e-08  -1.4178191020363044e-08  1.1069313758501234e-05  -9.2255289590542524e-04  -2.4601960177728361e-07  -1.2860492655409586e-06  8.1740896309551051e-04  -1.9062789306106912e-05  -5.7985831168194805e-05  5.8337566158537724e-08  3.4172250692928419e-07  -3.2112712956665470e-07  8.6053592185817310e-08  -1.6762443279142428e-07  -2.2806664305549395e-07  -2.9851025255896599e-07  -5.5828392529014170e-08  6.3834445457177476e-07  -1.8470370633420733e-07  -8.0861471980612068e-08  -6.2677265964320940e-07  -7.6834485946487490e-08  3.4259329537583268e-05  5.9872097180264468e-10  1.9210987012623463e-08  3.1077199454913596e-07  4.5560056359903158e-08  5.9558352486165593e-07  4.4067492684711243e-07  2.0672731461417940e-06  4.9457436771923471e-07  -5.0379106475347269e-07  3.6157530495186402e-07  -1.2688806967865602e-06  -1.0135765199798627e-06  -3.1382956048288571e-06  -1.1894790364776892e-04  4.5040345770338537e-07  1.8651940892157204e-06  -8.6789158179219849e-04  -4.5894787518902735e-06  2.9655095238939903e-04  -3.0283539667784993e-07  6.4243637739797876e-07  -1.5688620189251862e-07  1.4241179423651795e-06  1.1308420577697137e-06  3.3156481411780881e-07  9.4059280456592652e-08  -1.0352962303441705e-07  -2.2209156248602946e-07  9.4562368420330838e-07  7.1555635838214744e-07  1.5220608077416337e-06  -2.6980663504740259e-07  2.3153536961977113e-07  -4.8582469328642162e-07  -1.1175008264119125e-07  9.5896990781921368e-07  -4.8025421969882212e-07  1.7753144172735300e-08  5.3319275900970184e-07  -3.6823381725049559e-08  2.2023698651178193e-07  -2.8693181007964687e-07  5.7813253336881295e-07  -8.4930454879739522e-08  5.1398597106840215e-07  5.5598589876710728e-07  3.7552352752539103e-07  2.6474107275177017e-07  -7.8674932646473269e-07  -5.6282719301460510e-08  -2.0065013922912223e-05  -1.7332861888551539e-07  -6.1996590878083299e-05  4.3927404052939054e-07  1.3985720117091888e-07  2.3320028134767599e-07  -5.0416340033704053e-07  1.1681328163338133e-07  2.3675695833384682e-05  -3.0275547701562124e-07  -1.5833499093925282e-06  -1.8734749177370615e-06  -5.7657348888531037e-06  -2.6105441221777249e-04  -4.6451234614855429e-07  2.9054407883730501e-07  -8.2693020520014071e-07  3.2500028955299728e-08  1.8473537389807466e-08  -1.6710112055500025e-06  4.3011580577666475e-07  -6.2390827580693792e-07  1.8386512366269789e-07  -2.2132805678659128e-05  -8.7270241296705973e-07  2.7866904468424853e-07  4.3988234609183286e-07  -9.9003034059873159e-07  2.5081950228703190e-08  -4.9982072564773379e-07  9.4605831027584263e-07  2.4009793408630705e-08  -5.6819449139620680e-07  2.1409204021832536e-07  -1.0724264732364477e-07  -1.0404291008168478e-03  -1.1353679566700316e-03  1.0378859630384376e-04  -1.0781851417208897e-06  2.8922900861308648e-07  -7.1141106341195943e-07  -7.6460993362050853e-08  1.2149768687540156e-07  -9.8948919723964881e-07  7.7636397381380380e-07  -5.3770034688393832e-07  -1.8426466617225865e-07  2.8053601979262702e-04  1.2609803707336485e-06  -6.0118790950273040e-07  1.0332045043269369e-06  -2.5354784030770371e-07  -5.3246891055861933e-05  -2.0423887312233719e-05  1.8129340156351954e-03  1.1666055906900760e-06  4.9132227813582394e-07  -1.2877467422698184e-06  -1.3333717613702288e-05  -2.4104096132772409e-05  -5.0085930864776159e-06  -8.3949650875924489e-06  -7.7964272436045810e-06  -1.2422377171347593e-05  -1.0347264866284929e-06  2.7280979439719858e-08  -5.6674964634783842e-07  1.0123303159224129e-07  9.4132672130994136e-08  4.6316157586418904e-07  1.5486679831926738e-06  -1.5247249237665175e-04  -4.5840148258626135e-05  -1.6269335945018202e-04  1.9454074373586655e-03  -1.8824958356652362e-05  4.3991513690353991e-07  -7.7394295274468444e-07  -7.4443926248502317e-07  2.0035478253736771e-07  -4.9620055538700619e-07  3.1263375985494560e-07  7.9123463767567862e-07  3.2034428085084946e-06  -9.9528187130400543e-08  -6.2221509322197693e-06  1.0225840938245626e-05  3.6649704423342949e-06  -4.5166570810753207e-06  -3.5351609557370793e-05  2.2812086038531274e-05  -1.5102315467650554e-03  -5.2053568138850564e-06  8.9160923272680470e-05  -1.3814355375217126e-03  -5.8634316042253060e-07  2.6690120590775692e-07  -2.6035845910917085e-07  -1.0656929672181434e-06  1.8917286403217505e-07  2.2520459873647131e-07  1.0001933911412702e-07  -1.3149240666731254e-06  3.2201778178975162e-07  -8.5038615599444517e-07  1.4813430490412500e-06  -3.2207817461813053e-07  -1.3012116453285130e-06  -4.8287297984849693e-07  1.4006735650992641e-06  -1.1178749892036576e-07  1.1409093960014002e-07  7.9081079332143502e-07  1.4716687472623621e-07  -1.6694934693042559e-05  -3.0647182064275600e-06  1.6251994692946049e-07  8.6903399809291564e-07  -8.4048112776158424e-07  2.0103235501727964e-07  -2.3450924952750446e-07  -5.0608177081139611e-07  -5.7936758020327747e-07  -8.1900956772281518e-05  4.4000226210595521e-08  -1.9812955466101133e-06  -3.0364560430756569e-07  5.6113941371933505e-07  -3.7801346797696090e-08  7.2395820417427753e-07  -1.4202920743854318e-06  4.9087150836187329e-08  3.0139461331741269e-08  -5.3566875026131700e-05  -2.2620107421005912e-07  -5.0637463629188833e-07  -3.2851551490240086e-07  -1.3332007358749546e-06  3.6400697842797929e-06  4.2523229308888949e-06  9.3138915141740272e-07  1.6245836571553141e-06  4.0853256796851365e-08  1.2507158434632333e-06  1.5178726099680254e-06  1.3157720657548994e-06  -7.2533505789929193e-09  2.8299553121202687e-07  -2.2634066007448835e-07  1.3939809802563900e-06  -8.6518295557791385e-08  -1.5373189378620952e-06  -1.4206305805159298e-07  -8.2137753808499121e-07  7.8802780435687306e-07  8.0766168339080749e-07  1.2533412233698970e-06  -3.3084308799622657e-07  3.6394317305008326e-08  -5.3722408479725645e-07  -4.1859556849606868e-07  4.0983509875290432e-07  -1.4407017740526049e-06  -3.2621815747292380e-07  5.2324655674297346e-08  -2.8842295339738726e-07  2.1013434158847663e-06  9.5685307928794890e-07  1.4770492339967485e-06  3.4152426260796134e-07  9.8084644013812005e-07  -2.8374113591160069e-08  7.2127995690197660e-07  6.1175554034853065e-07  -1.3194198315462612e-07  1.7052985196877243e-04  -2.5146389621470025e-07  1.9605284091464475e-07  -1.8618722221173037e-05  -4.7810022224258341e-04  7.8253036901803009e-05  -4.9993151790226589e-04  -4.8057364385548123e-04  -5.3750526253599683e-05  -4.8732197746999515e-07  -2.8057556360108199e-07  -3.3847490961754090e-05  -4.9449427813123684e-04  9.9563200707501134e-07  -4.4827019740047142e-04  -4.7839345079820570e-04  8.8757484907975558e-07  -5.5462871242229116e-07  5.2432522968021790e-07  -7.7965766418070392e-08  1.0089390744687375e-07  -6.7360012739509495e-07  5.1803325203795182e-07  -3.0908182543779217e-07  -2.5151762372427035e-10  8.2772437233488912e-07  -1.7015821930596445e-07  4.7099705521527240e-07  4.5205196309516701e-07  8.4121988875031261e-07  1.5809502328664292e-06  -1.3816039931525879e-07  -4.7478187163602319e-09  3.1212438000319149e-08  -4.1740293993271334e-05  -2.5273307489645999e-05  -5.5426110668986073e-06  -1.8293521377430449e-05  -5.6988431145806715e-06  -6.4735368574579874e-06  -1.8057120024717436e-05  8.2688093910068079e-08  1.0653868478199222e-08  -2.6041307266423714e-05  -4.5080490474125224e-05  -5.1960774928990012e-07  -2.4349396590191507e-07  3.5010159181401215e-07  4.0383132833525679e-07  3.5398406970212254e-07  9.3640790232972962e-07  4.1177495608148309e-08  2.0385165092661696e-06  2.3654325494120207e-07  -2.7669110550629918e-07  -2.3613907004404824e-07  7.3347494768751188e-07  -2.1008649816593075e-05  -3.6593632059952504e-04  1.7460841895424903e-06  -4.9979317822745474e-06  1.4477289670809194e-04  -3.8159382031381375e-07  -1.2562947165873702e-06  1.0732091253138470e-06  8.2270684809584298e-07  -8.7781798678349983e-05  8.0605771150680150e-04  1.6272166304434153e-07  -9.1393168580888727e-08  1.0836949979814909e-07  1.5499501918183172e-07  1.1906388166608645e-06  -6.5437925847951856e-07  9.6667542456317060e-07  -1.5642983363849577e-06  -2.7638417525772114e-06  -1.6592716825348422e-07  4.1034437479672273e-07  3.3712209820373469e-07  -7.5255019768888763e-07  -7.1766305723293296e-07  -1.0266505471660378e-07  4.6494986159577387e-07  8.4680995910933269e-07  -2.3467119467321018e-06  -4.5694715746769409e-07  2.4843543605048071e-07  4.4327268838809211e-07  -3.8295246871607880e-08  -4.9897655599874807e-07  3.7897239304671536e-08  1.3264619970424327e-07  1.7639680012300588e-06  -9.8088885122948421e-07  -2.3958880587761510e-06  -3.9158449567398016e-07  1.4087076788434197e-08  1.2105230814076890e-07  2.6901204635594390e-07  -6.3233558489095002e-06  -6.1574348880309345e-06  -4.3580784864436614e-06  8.5382466551874462e-05  1.3968606513586545e-06  -4.4561262909774276e-05  -6.4226824248158377e-06  5.1873359277372633e-04  4.1207874413493814e-07  -4.2592868009796991e-06  -1.3303019843978836e-06  -3.7473008466369874e-06  6.0900260211936592e-07  -1.9736122954092770e-04  -2.1440684514585507e-04  -3.3593371467552899e-07  8.6206589407404489e-07  -4.8435957398183672e-07  -3.8809792250789416e-07  1.5339725560400724e-07  8.2421377264446198e-03  -3.0108251949560977e-05  8.2721946388127508e-07  -2.2971885347873404e-07  -1.1861635497502263e-07  -1.0627074025382094e-06  3.0532706766150123e-07  -1.6079061997691328e-06  3.3472603298847632e-07  7.5187113973376259e-07  3.2076267768651072e-07  -1.2603068596405388e-06  -5.2857819529252865e-07  -4.2283041832890262e-08  -2.9042369176687687e-07  -4.7478228651848784e-06  -5.7013746382178506e-05  4.9229411505689832e-08  2.3041827748090679e-07  3.3577154669565693e-07  6.7683857517769776e-07  1.1296973241042674e-06  -8.0485226716615893e-07  -8.8502357926603948e-07  -1.2595395719946230e-06  -1.5938893668057560e-07  1.5421051724881027e-06  -3.5668336557175250e-07  3.0432615188032011e-07  -2.6399396955689406e-07  8.9830313120703578e-07  -1.4555761490308047e-07  3.5053860977850930e-07  -8.1201486283229747e-07  -3.2034903743596529e-04  -2.6842402881256747e-04  -1.2053184752919915e-03  -3.3915844908995158e-04  -1.0456841365813495e-06  -4.0677705031415694e-07  3.0335145975421521e-04  -6.7243551914663686e-07  -3.7224856799463170e-09  -9.4272985467004259e-05  -1.7121938624994503e-06  -6.1670655341045357e-05  -1.0594655106069453e-06  -2.0537329580459885e-05  -7.4334120033003971e-07  -1.0728481345459670e-06  8.2457304503335940e-07  7.3112871857926526e-07  -8.4076924329296221e-07  1.7660142584886957e-07  6.3063268424990894e-07  -2.6421427997475701e-07  4.4114790303138788e-07  7.1279476352507894e-03  1.8689315976921749e-07  1.3616779035110233e-06  2.5009729341447696e-07  6.2663713696656453e-07  5.1543294992521193e-07  -4.5979705459369570e-07  -1.4730883515766809e-07  4.7789471997753819e-07  1.8149698395999084e-07  -8.0205457316552027e-07  1.0041612368808144e-06  -5.0929024111849282e-07  -4.9193942200234352e-08  2.3589002525375332e-07  1.4369683529180358e-06  7.5007019108014350e-07  7.4980366150384796e-07  4.5188527062057403e-07  -6.1598465668356135e-07  -7.6457055303821597e-07  1.0288228445156871e-07  -1.2371609331363463e-06  -8.5177002212286873e-07  -5.5976499838099892e-07  2.7034471541858428e-07  5.8566230223014931e-08  6.6036871567666146e-07  -5.3583166784398343e-06  2.8686011673275509e-07  2.7976165507978090e-04  -1.7763813443619737e-06  -9.3080151286134888e-05  7.3832576820654027e-07  -1.3539811513961937e-06  -4.8642580198058060e-04  -1.9022610483586943e-05  -2.2625222239100625e-05  -3.4892657522254584e-05  -6.9445086411539902e-06  -2.4066285698151446e-05  -8.1500218449607066e-05  5.7249647338797490e-04  -6.5618395199249749e-07  -2.0726353208384302e-07  1.0851942005938467e-06  -1.4470174478005503e-06  -6.0078222708915227e-07  1.6477728252055752e-06  -1.4758414550647714e-06  7.0779188097236545e-07  9.7847822796231978e-07  -4.8824826608825004e-07  -3.3625962289913107e-08  1.1143635926838126e-06  -7.4038687967291557e-07  -1.1032556249790599e-05  -1.2627378265191295e-06  -8.5700161460925835e-07  -8.9146914230536405e-08  -2.9995674656437900e-05  -5.5798551435290883e-06  7.4312733407564669e-08  5.1096956637505400e-07  -4.6294517276741519e-07  1.6024098331482882e-06  3.4177121903879907e-08  -4.0425563721332784e-07  1.1251537237727490e-06  7.1028815897839013e-08  1.9094371306697210e-07  -4.1261694463532135e-05  -1.0850195521666965e-06  1.3435970960087082e-07  2.8411482234403327e-07  1.4978598396510780e-06  8.2052598727342483e-07  1.4303858558554475e-06  5.3450052547122510e-07  2.4403631756197861e-07  -1.7394422595077856e-07  -1.8016834594848283e-07  1.1305460183577078e-06  -1.6195341650220624e-03  4.8076595815422811e-03  -1.2863231694189551e-05  -7.2326005685876752e-06  -1.7283111794262191e-07  4.6854562651486465e-07  -2.5767790775150933e-07  -1.0698776819975388e-06  -5.5848826748262952e-06  -1.2482454841098375e-06  -2.4628604694303010e-06  -2.0196277956907916e-06  -7.4860153232273612e-06  -4.4212627328220766e-05  1.7308059014103438e-07  5.3274723972701610e-04  6.5387644365213277e-07  7.7443232547827630e-07  -1.3345099019937110e-05  -4.5203993430903595e-04  -1.1286507937061665e-03  -6.8586133094480632e-06  -1.1992210891159185e-05  -8.8598903546554099e-05  -2.7781314098768086e-04  -1.7729724405635952e-03  -4.8119005258850522e-07  6.2741346472668116e-07  2.1053403176326743e-07  8.9107778690473974e-07  5.2534671358086997e-03  -7.0821449380636932e-06  2.6702935814917852e-07  7.3659050091792719e-07  2.7700450994937481e-07  -4.6885380461985077e-07  3.1384410035565172e-07  7.5264280864509824e-07  4.7386732530829771e-08  -8.4771730652947028e-07  -7.7210185910576070e-07  4.3640248902109641e-07  5.4276765024844639e-07  -2.6153330450769179e-06  8.7066740705086752e-07  2.5499236803031133e-07  -6.9637256689842384e-07  -2.6708375528519302e-07  -2.8909640092769254e-07  -8.1369953095408195e-07  -2.1689156512066435e-05  -6.1789864584042323e-06  -5.2137155840308472e-07  -5.1372198749322091e-07  -4.1426922297076027e-07  -4.4489607434693429e-07  -1.7398082608624349e-06  6.7622967013563023e-07  -1.1580372518384945e-06  6.8376395384586205e-07  -2.8335073448639112e-07  -8.7852818368363944e-07  1.1787521433702197e-07  -4.0845849778993037e-07  -4.4168793772174853e-07  -5.3997325777289511e-07  8.3097549065903059e-07  1.1230779920834066e-06  6.2936353780590212e-07  4.0983942164062429e-07  6.6894201531409698e-07  -5.7204465606137377e-07  1.9836753170149746e-06  -1.6159175846016820e-07  -1.3035450712940370e-05  -1.8440924006392854e-06  -2.3701948128546834e-06  -3.8109011563777158e-07  -1.2135116205049324e-08  -8.5383140138724608e-06  3.2360903784543658e-07  -3.2586508467035697e-05  -1.1251751841909437e-05  -2.3749674063511140e-05  5.4513942567525799e-04  -5.8594959655589078e-07  -4.5018313196660615e-07  -3.8355972871985947e-07  1.5145080852535627e-07  6.6110808465457397e-08  -6.5361110738450905e-07  8.9845567440133034e-07  1.1099674290870079e-06  8.6096257127499614e-05  -1.3232094574708314e-04  -3.3736442095787445e-05  1.5553606875453972e-05  1.3167791046430421e-06  4.4752500725889830e-06  -1.3195685834506682e-06  7.8773842039500785e-06  3.2322320815797532e-05  -7.9018124487749680e-05  -6.7600572335433998e-03  -2.0495995171232533e-05  1.3734042192712524e-07  5.9398224667054942e-07  8.5584750449699195e-05  1.2196536610882178e-04  4.7547182258823590e-04  2.9075161430391511e-07  5.7327389604457525e-04  -1.2622454608567676e-06  -2.4773510964056328e-07  -7.4570765558674102e-03  2.1663152674690741e-07  -5.3584675196915154e-08  -9.5610466358576470e-07  -1.0161879623235647e-06  -1.3502119126501433e-07  -2.7965993335000913e-07  8.3483062239669586e-07  1.5116767872859304e-06  -3.1789342964049899e-07  2.2169402759663126e-07  -1.6836768407061868e-07  -1.2344098482768053e-05  -3.6067790850251562e-06  9.5960160018500171e-07  -2.9263082168586984e-08  -3.6922203298898876e-04  -1.4761917735675145e-04  5.5336601525268140e-07  -3.8933800624869929e-07  7.4841543359015483e-07  -5.7415444842686276e-07  1.2652131843906894e-06  -9.7366971355701207e-07  4.4357000411700676e-07  -1.3326000749490791e-04  -6.3885973447389765e-07  2.8061885480396720e-07  -1.2886593192433002e-07  6.2107925360243091e-04  -2.6167785608847980e-05  -1.8223500301786903e-07  2.6975375375257337e-07  -2.5616659567056934e-07  1.2948985770060824e-08  7.4881191092353690e-07  4.2647436108460350e-08  -3.5436691011093376e-07  -6.6477736359807886e-07  5.0793761064871542e-07  -2.7332456618105065e-07  -2.8776000057722194e-04  -1.6958935959356958e-06  -1.3110742805109608e-05  -1.5638326095032318e-07  -1.0786061114760750e-06  -1.0134559213647829e-05  8.9133773039760564e-07  9.6255601462228081e-07  2.6102746026358700e-06  1.3051705876458592e-06  7.1304712308023239e-04  -8.0444146191108658e-06  -7.8421376740409031e-07  -6.6737458607210030e-06  -2.8218663439911657e-05  -1.5888524727357714e-07  -2.5638943132391168e-07  -4.0331543553108457e-07  -2.0152518603533013e-07  -4.6151840791721128e-07  -4.2136257130133252e-08  3.8626348139588604e-07  -8.4830808428517269e-07  -1.2105081066697682e-05  -1.4471792342941406e-05  -1.8990587142917769e-07  -6.9354918321181310e-07  3.2947475660426996e-07  -4.0636135877386751e-07  -1.0687495611274144e-03  -3.5331366559100142e-05  2.2974370844198126e-07  -5.0835812383587191e-06  -2.0546672052421644e-05  1.3975256044645922e-06  -4.6866488970455620e-07  -4.7905201847838482e-05  -8.2276001998278308e-04  -9.6717282354225813e-04  -7.5979372528707869e-04  7.6129876333441388e-07  -8.6673207315745330e-08  1.0652863165063342e-06  1.2541261047711375e-07  -4.7958893149063130e-08  1.2112072013988591e-07  -9.8233662343331715e-07  2.0582930591362210e-07  2.5494412151909202e-07  1.4745113519540042e-07  -9.7847483683421122e-07  2.6999570661382492e-07  1.7640974279715496e-06  7.1832081185592856e-07  4.1849070945973863e-07  -2.6805049629009373e-05  -1.8783302799981997e-05  2.4475924026743151e-07  2.4094315490996955e-07  -6.4760173943041599e-07  6.3400246960250570e-07  7.9437437043362069e-07  2.8803202955979261e-07  -1.6292422463089037e-06  -1.4336840854373910e-06  3.5562924956610663e-07  7.2071447562826046e-07  -7.4618618195581157e-07  -7.6943817091544363e-07  5.5751317130015574e-07  -7.0226518428824451e-09  -2.8921742060836244e-05  -9.2083020799516412e-05  1.9003430641304163e-03  -3.3305992397405154e-06  -1.1234581401058883e-06  -8.2161836710326075e-07  -5.1997633382799865e-07  -3.5157715813179512e-05  -1.7722038826441565e-06  8.3680378840896493e-07  -3.2518300339081280e-04  -9.7658425535095194e-06  -2.6256701818833659e-07  -1.1200872729577687e-08  8.3519628707074360e-07  -1.3325122503409099e-06  1.0345431465425979e-06  1.0513025780532835e-06  8.6079669788328317e-07  7.5011114866770413e-07  4.6498101661340252e-07  1.3950346533549466e-07  9.7559086433826105e-07  -8.9994634400597723e-07  6.0718621725374774e-07  -1.4925525454366684e-06  7.1567267416827629e-07  1.6557361909089439e-06  -1.8419499754912352e-07  5.6608487070604742e-07  6.4772610451924252e-07  2.4678331460139050e-06  -3.6087651701021236e-07  -2.2400082384134077e-06  -1.6766536415248865e-06  9.1656209357334937e-07  3.4616025147769570e-07  -3.4332573323511383e-08  -9.5393525346882304e-08  5.9015919244420331e-07  -7.22983578484644