<?xml version="1.0"?>
<VTKFile type="UnstructuredGrid"  version="0.1"  >
<UnstructuredGrid>
<Piece  NumberOfPoints="16808" NumberOfCells="31534">
<Points>
<DataArray  type="Float64"  NumberOfComponents="3"  format="ascii">0 12.7 0  0 0 0  0.2 0 0  0.2 12.7 0  0.2 6.35 0  0 6.35 0  0 3.175 0  0.2 3.175 0  0 9.524999999999999 0  0.2 9.524999999999999 0  0 11.1125 0  0.2 11.1125 0  0.2 1.5875 0  0 1.5875 0  0.2 4.762499999999999 0  0 4.762499999999999 0  0.2 7.937499999999999 0  0 7.937499999999999 0  0.2 10.31875 0  0 10.31875 0  0.2 11.90625 0  0 11.90625 0  0 5.556249999999999 0  0.2 5.556249999999999 0  0 0.79375 0  0.2 0.79375 0  0 2.38125 0  0.2 2.38125 0  0.2 7.143749999999999 0  0 7.143749999999999 0  0 8.731249999999999 0  0.2 8.731249999999999 0  0 3.96875 0  0.2 3.96875 0  0.2 11.509375 0  0 11.509375 0  0 10.715625 0  0.2 10.715625 0  0 7.540624999999999 0  0.2 7.540624999999999 0  0.2 2.778125 0  0 2.778125 0  0.2 5.159374999999999 0  0 5.159374999999999 0  0.2 5.953125 0  0 5.953125 0  0.2 8.334375 0  0 8.334375 0  0.2 0.396875 0  0 0.396875 0  0 1.190625 0  0.2 1.190625 0  0.2 3.571874999999999 0  0 3.571874999999999 0  0.2 4.365625 0  0 4.365625 0  0.2 1.984375 0  0 1.984375 0  0.2 6.746874999999999 0  0 6.746874999999999 0  0.2 9.128124999999999 0  0 9.128124999999999 0  0.2 9.921874999999998 0  0 9.921874999999998 0  0 12.303125 0  0.2 12.303125 0  0 11.7078125 0  0.2 11.7078125 0  0.2 10.5171875 0  0 10.5171875 0  0.2 8.135937499999999 0  0 8.135937499999999 0  0.2 5.754687499999999 0  0 5.754687499999999 0  0 5.3578125 0  0.2 5.3578125 0  0 7.739062499999999 0  0.2 7.739062499999999 0  0 3.770312499999999 0  0.2 3.770312499999999 0  0.2 1.3890625 0  0 1.3890625 0  0.2 2.579687499999999 0  0 2.579687499999999 0  0 2.9765625 0  0.2 2.9765625 0  0 4.1671875 0  0.2 4.1671875 0  0 0.1984375 0  0.2 0.1984375 0  0 0.5953124999999999 0  0.2 0.5953124999999999 0  0.2 1.7859375 0  0 1.7859375 0  0 2.1828125 0  0.2 2.1828125 0  0.2 0.9921874999999999 0  0 0.9921874999999999 0  0.2 12.1046875 0  0 12.1046875 0  0.2 12.5015625 0  0 12.5015625 0  0 9.723437499999999 0  0.2 9.723437499999999 0  0 8.9296875 0  0.2 8.9296875 0  0 9.326562499999998 0  0.2 9.326562499999998 0  0 6.548437499999999 0  0.2 6.548437499999999 0  0 6.945312499999999 0  0.2 6.945312499999999 0  0 3.3734375 0  0.2 3.3734375 0  0 8.532812499999999 0  0.2 8.532812499999999 0  0 6.1515625 0  0.2 6.1515625 0  0 4.564062499999999 0  0.2 4.564062499999999 0  0 4.960937499999999 0  0.2 4.960937499999999 0  0.2 7.342187499999999 0  0 7.342187499999999 0  0 10.1203125 0  0.2 10.1203125 0  0.2 10.9140625 0  0 10.9140625 0  0 11.3109375 0  0.2 11.3109375 0  0.1 10.81484375 0  0.1 12.00546875 0  0.1 5.85390625 0  0.1 8.235156249999999 0  0.1 8.632031249999999 0  0.1 8.83046875 0  0.1 9.425781249999998 0  0.1 9.624218749999999 0  0.1 10.21953125 0  0.1 10.41796875 0  0.1 10.61640625 0  0.1 11.60859375 0  0.1 11.80703125 0  0.1 11.41015625 0  0.1 5.258593749999999 0  0.1 7.639843749999999 0  0.1 12.7 0  0.1 4.067968749999999 0  0.1 2.87734375 0  0.09999999999999999 2.67890625 0  0.1 3.86953125 0  0.1 1.88515625 0  0.1 0.6945312499999999 0  0.1 1.28984375 0  0.1 1.48828125 0  0.1 2.08359375 0  0.1 0 0  0.1 0.29765625 0  0.1 0.8929687499999999 0  0.09999999999999999 1.09140625 0  0.1 0.4960937499999999 0  0.1 7.242968749999999 0  0.1 4.861718749999999 0  0.1 5.060156249999999 0  0.1 4.464843749999999 0  0.1 4.663281249999999 0  0.09999999999999999 3.47265625 0  0.1 6.846093749999999 0  0.1 7.044531249999999 0  0.1 6.449218749999999 0  0.1 6.647656249999999 0  0.09999999999999999 6.250781249999999 0  0.1 6.05234375 0  0.09999999999999996 1.68671875 0  0.1 4.266406249999999 0  0.1 3.07578125 0  0.09999999999999999 2.28203125 0  0.09999999999999996 2.48046875 0  0.1 3.671093749999999 0  0.1 3.27421875 0  0.09999999999999999 5.457031249999999 0  0.09999999999999996 5.65546875 0  0.09999999999999999 7.441406249999999 0  0.09999999999999999 7.838281249999999 0  0.09999999999999996 8.036718749999999 0  0.1 11.21171875 0  0.1 11.01328125 0  0.1 10.02109375 0  0.1 8.43359375 0  0.1 9.227343749999999 0  0.1 9.02890625 0  0.1 9.82265625 0  0.1 12.40234375 0  0.1 12.20390625 0  0.1 12.5755843996063 0  0 0.09921874999999999 0  0.2 0.09921874999999999 0  0.09999999999999999 0.148828125 0  0.09922180175781284 7.143749999999999 0  0 7.639843749999999 0  0.2 7.639843749999999 0  0 5.258593749999999 0  0.1007781982421872 5.159374999999999 0  0.2 5.258593749999999 0  0.09922180175781285 11.90625 0  0.09922180175781285 11.509375 0  0.1007781982421872 11.7078125 0  0 11.41015625 0  0 11.60859375 0  0.2 11.41015625 0  0.2 11.60859375 0  0.09922180175781285 10.715625 0  0.1007781982421872 10.5171875 0  0.1007781982421872 10.31875 0  0 10.41796875 0  0.2 10.41796875 0  0 10.21953125 0  0.2 10.21953125 0  0.1007781982421872 9.524999999999999 0  0 9.624218749999999 0  0.2 9.624218749999999 0  0 9.425781249999998 0  0.2 9.425781249999998 0  0.1007781982421872 5.953125 0  0.09922180175781285 8.135937499999999 0  0.1007781982421872 8.731249999999999 0  0 8.83046875 0  0.2 8.83046875 0  0 8.632031249999999 0  0.2 8.632031249999999 0  0.2 8.235156249999999 0  0 8.235156249999999 0  0.2 5.85390625 0  0 5.85390625 0  0 11.80703125 0  0 12.00546875 0  0.2 11.80703125 0  0.2 12.00546875 0  0 10.61640625 0  0 10.81484375 0  0.2 10.61640625 0  0.2 10.81484375 0  0.09922180175781287 5.556249999999999 0  0.1007781982421872 11.1125 0  0.09922180175781285 8.334375 0  0.09922180175781285 8.9296875 0  0.09922180175781285 9.723437499999999 0  0.2 12.60078125 0  0 12.60078125 0  0.1007781982421874 1.984375 0  0.1007781982421874 1.3890625 0  0 2.67890625 0  0 2.87734375 0  0.1007781982421874 2.5796875 0  0.2 2.67890625 0  0.2 2.87734375 0  0 3.86953125 0  0 4.067968749999999 0  0.1007781982421874 3.7703125 0  0.2 3.86953125 0  0.2 4.067968749999999 0  0.09922180175781263 2.9765625 0  0 2.08359375 0  0.2 2.08359375 0  0.2 1.48828125 0  0 1.48828125 0  0 1.28984375 0  0.2 1.28984375 0  0 0.6945312499999999 0  0.2 0.6945312499999999 0  0.2 1.88515625 0  0 1.88515625 0  0.09922180175781251 0.9921874999999999 0  0.1007781982421875 0.5953124999999999 0  0 0.29765625 0  0.2 0.29765625 0  0.1007781982421875 0.396875 0  0 0.4960937499999999 0  0.2 0.4960937499999999 0  0.2 1.09140625 0  0 1.09140625 0  0.1007781982421876 0.7937499999999998 0  0 0.8929687499999999 0  0.2 0.8929687499999999 0  0.1007781982421876 7.937499999999998 0  0 8.036718749999999 0  0.2 8.036718749999999 0  0 7.83828125 0  0.2 7.83828125 0  0.1007781982421876 7.739062499999999 0  0.09922180175781239 7.540624999999999 0  0.2 7.441406249999998 0  0.09922180175781239 7.3421875 0  0 7.441406249999998 0  0 5.655468749999999 0  0.09922180175781239 5.754687499999999 0  0.2 5.655468749999999 0  0 5.45703125 0  0.2 5.45703125 0  0.1007781982421876 5.3578125 0  0.1007781982421876 3.175 0  0.09922180175781241 3.571874999999999 0  0 3.671093749999999 0  0.2 3.671093749999999 0  0.1007781982421876 2.38125 0  0 2.48046875 0  0.2 2.48046875 0  0 2.28203125 0  0.2 2.28203125 0  0.1007781982421876 2.1828125 0  0 3.07578125 0  0.09922180175781242 1.5875 0  0 1.68671875 0  0.09922180175781239 1.7859375 0  0.2 1.68671875 0  0 6.05234375 0  0 6.250781249999999 0  0 6.44921875 0  0.2 6.05234375 0  0.2 6.250781249999999 0  0.1007781982421876 6.349999999999999 0  0.2 6.44921875 0  0.1007781982421876 6.548437499999999 0  0.09922180175781242 6.746874999999999 0  0.1007781982421876 6.945312499999998 0  0 6.647656249999999 0  0 6.84609375 0  0.2 6.647656249999999 0  0.2 6.84609375 0  0 3.27421875 0  0 3.47265625 0  0.2 3.07578125 0  0.2 3.27421875 0  0.1007781982421876 3.3734375 0  0.2 3.47265625 0  0.09922180175781244 4.167187499999999 0  0 4.266406249999999 0  0 4.46484375 0  0.2 4.266406249999999 0  0.1007781982421876 4.365625 0  0.2 4.46484375 0  0 5.060156249999999 0  0.2 5.060156249999999 0  0.1007781982421876 4.564062499999999 0  0.09922180175781242 4.762499999999999 0  0.1007781982421876 4.960937499999998 0  0 4.663281249999999 0  0 4.86171875 0  0.2 4.663281249999999 0  0.2 4.86171875 0  0.2 7.044531249999999 0  0.2 7.242968749999999 0  0 7.044531249999999 0  0 7.242968749999999 0  0.09922180175781239 1.190625 0  0.09922180175781241 3.96875 0  0.09922180175781241 2.778125 0  0.09922180175781195 12.303125 0  0.100778198242188 12.1046875 0  0 12.20390625 0  0 12.40234375 0  0.2 12.20390625 0  0.2 12.40234375 0  0 9.028906249999999 0  0 9.227343749999999 0  0.09922180175781198 9.128125000000001 0  0.09922180175781198 9.3265625 0  0.2 9.028906249999999 0  0.2 9.227343749999999 0  0 8.43359375 0  0.09922180175781198 8.5328125 0  0.2 8.43359375 0  0 9.822656249999998 0  0 10.02109375 0  0.09922180175781198 9.921875 0  0.09922180175781198 10.1203125 0  0.2 9.822656249999998 0  0.2 10.02109375 0  0.09922180175781196 10.9140625 0  0 11.01328125 0  0 11.21171875 0  0.09922180175781198 11.3109375 0  0.2 11.01328125 0  0.2 11.21171875 0  0.09922180175781198 6.1515625 0  0.08672180175781248 12.48896407480315 0  0.07461090087890626 0.2232421875 0  0.1253890991210938 0.0744140625 0  0.05038909912109379 4.3164077878937 0  0.1496109008789064 5.605467212106299 0  0.1496109008789064 8.0867202878937 0  0.05038909912109358 5.1101577878937 0  0.05038909912109338 4.514845287893699 0  0.05038909912109338 6.896095287893699 0  0.05038909912109338 6.499220287893699 0  0.05000000000000002 6.002734375 0  0.05000000000000002 3.819921874999999 0  0.1496109008789064 5.5070327878937 0  0.1499999999999996 7.391796874999998 0  0.05038909912109338 4.911720287893699 0  0.1496109008789069 9.971092212106297 0  0.1496109008789069 9.177342212106298 0  0.05038909912109314 12.0554702878937 0  0.149610900878906 12.2539077878937 0  0.05 12.7 0  0.1374999999999996 12.63779219980315 0  0.1496109008789064 9.772654712106299 0  0.1496109008789064 9.6742202878937 0  0.1496109008789064 8.978904712106299 0  0.1496109008789064 8.880470287893701 0  0.1496109008789064 8.383592212106299 0  0.1496109008789064 
[...]
<PointData  Scalars="sigma (Pa)"> 
<DataArray  type="Float64"  Name="sigma (Pa)"  format="ascii">6.3041884649638284e-03  6.1203256163676611e-03  -5.5635282100240865e-03  -6.0809616994582432e-03  -2.5885821621915438e-06  2.1911427702891009e-09  8.5795502322468424e-09  -7.8110510356148409e-08  6.9861460673317826e-08  3.9845231450855006e-08  -1.1518753134911101e-07  -4.5549546785862458e-07  4.5889423623430689e-08  -5.4610507979910179e-08  1.3347563742550344e-08  1.1913087520675658e-08  -6.8525177803498311e-07  -2.9896896192398475e-07  -8.2452305875884075e-09  -7.4799150423657258e-10  1.3593632014691813e-07  1.1503362519675538e-07  4.2077194163776364e-08  -3.2477418071824211e-05  -3.6763038029140668e-08  4.4899171366773084e-08  9.0509629542027542e-09  -7.0469987460591093e-08  -1.6734036213114748e-05  3.1767787751769380e-08  -1.4470695005574623e-07  -4.0831083960903357e-09  -2.3304744281611947e-07  -3.7785192559417449e-08  7.0985747761745418e-08  2.6152178299263625e-07  1.0102469540016522e-08  -1.8734912275572689e-09  1.4627117564414381e-06  -1.2190720119473750e-04  -3.2509258786300499e-08  -1.6994002438590528e-07  1.0801336098372022e-04  -2.5189789563642782e-06  -7.6623143674698395e-06  7.7088481530996957e-09  4.5155545135026959e-08  -4.2434130643007436e-08  1.1371220401211605e-08  -2.2150084387416072e-08  -3.0136975543593839e-08  -3.9445492188654730e-08  -7.3772505210007593e-09  8.4351742459741072e-08  -2.4406886672711527e-08  -1.0685079563471186e-08  -8.2822463434664814e-08  -1.0153015206649769e-08  4.5270671201029522e-06  7.9045695062415938e-11  2.5385378810565101e-09  4.1065858795129494e-08  6.0203687511683235e-09  7.8701064969718951e-08  5.8231291172388381e-08  2.7317185385619647e-07  6.5353618377404008e-08  -6.6571526786366869e-08  4.7778962967099777e-08  -1.6767134504098406e-07  -1.3393502871370539e-07  -4.1469806309524514e-07  -1.5717912724399531e-05  5.9516911689923719e-08  2.4646892944862083e-07  -1.1468419223014196e-04  -6.0645884732628719e-07  3.9186584125269029e-05  -4.0017060781858427e-08  8.4892383665751700e-08  -2.0731114718262587e-08  1.8818460039361051e-07  1.4943078798265259e-07  4.3813338663971689e-08  1.2429108308555097e-08  -1.3680431565672791e-08  -2.9347268423410082e-08  1.2495567389174930e-07  9.4554440439801313e-08  2.0112686664807617e-07  -3.5652557035747109e-08  3.0595346138994958e-08  -6.4197406041998732e-08  -1.4766796549513718e-08  1.2671932632138895e-07  -6.3461346407923496e-08  2.3459143419740667e-09  7.0456687529749794e-08  -4.8658820700320661e-09  2.9102372750036869e-08  -3.7915499210081835e-08  7.6395098084286808e-08  -1.1222811724903843e-08  6.7918727711259895e-08  7.3468599442888391e-08  4.9622083948243216e-08  3.4983235221227094e-08  -1.0396204736702681e-07  -7.4372264607679006e-09  -2.6514140655475418e-06  -2.2903870404656791e-08  -8.1923009273608894e-06  5.8046149607627615e-08  1.8480848001778951e-08  3.0815391443005667e-08  -6.6620774441914041e-08  1.5435802977359296e-08  3.1285336654310367e-06  -4.0006503746132919e-08  -2.0922568081070595e-07  -2.4756310140357811e-07  -7.6189083407129599e-07  -3.4496030515925619e-05  -6.1381115929030057e-08  3.8392846611947425e-08  -1.0927150149100465e-07  4.2945740815957736e-09  2.4410417257176613e-09  -2.2080932943251959e-07  5.6835988715965646e-08  -8.2443942568701158e-08  2.4296146833955501e-08  -2.9246544424466589e-06  -1.1531999892058551e-07  3.6823621617356398e-08  5.8126615458236554e-08  -1.3082372963117301e-07  3.3142468522161753e-09  -6.6046871638710439e-08  1.2501322793558284e-07  3.1726903137106144e-09  -7.5081871503859023e-08  2.8290362481005371e-08  -1.4171148956848808e-08  -1.3748349856673115e-04  -1.5002882828034093e-04  1.3714744542262303e-05  -1.4247271954408608e-07  3.8218994050149523e-08  -9.4006618498136245e-08  -1.0103602418831610e-08  1.6054813968001607e-08  -1.3075224082754553e-07  1.0258963996502876e-07  -7.1052320135161857e-08  -2.4348921203228549e-08  3.7070352460429369e-05  1.6662739739734976e-07  -7.9441659705122475e-08  1.3652883143064160e-07  -3.3504103549195917e-08  -7.0361053193688428e-06  -2.6988359608312069e-06  2.3956318690864376e-04  1.5415656465709436e-07  6.4923788996704666e-08  -1.7016435008629329e-07  -1.7619327629280081e-06  -3.1851430698655089e-06  -6.6184132133221090e-07  -1.1093203387445460e-06  -1.0302287479885816e-06  -1.6415070951205782e-06  -1.3672995064271495e-07  3.6049503331930401e-09  -7.4890860109548545e-08  1.3377014281522993e-08  1.2438809625933859e-08  6.1202669390949763e-08  2.0464271203253509e-07  -2.0147890631553952e-05  -6.0573700910554026e-06  -2.1498487669346257e-05  2.5706837729526675e-04  -2.4875516547131652e-06  5.8130902610833795e-08  -1.0226971073525510e-07  -9.8371080095462493e-08  2.6475178502012530e-08  -6.5568460759432902e-08  4.1311716956882726e-08  1.0455463145061067e-07  4.2330662003328375e-07  -1.3151771424016649e-08  -8.2220218371667788e-07  1.3512543881646404e-06  4.8429341120631032e-07  -5.9683626390966202e-07  -4.6714023806816028e-06  3.0144153665398051e-06  -1.9956373427954137e-04  -6.8784192119811130e-07  1.1781826937167069e-05  -1.8254448166173118e-04  -7.7480057881145887e-08  3.5268641531000055e-08  -3.4404075305591345e-08  -1.4082189202178227e-07  2.4997510191339756e-08  2.9758800811428828e-08  1.3216659803245707e-08  -1.7375560229323838e-07  4.2551769759611258e-08  -1.1237098811111233e-07  1.9574633605252114e-07  -4.2559801573778773e-08  -1.7194358533083201e-07  -6.3807364249204393e-08  1.8508657631300564e-07  -1.4771658821932969e-08  1.5076089575594378e-08  1.0449871183263557e-07  1.9446810453836284e-08  -2.2060878654373530e-06  -4.0497531981974232e-07  2.1475615039120961e-08  1.1483515281750786e-07  -1.1106203517655538e-07  2.6564636705923286e-08  -3.0988302067527905e-08  -6.6874220668322175e-08  -7.6558345003877357e-08  -1.0822486640496103e-05  5.8142217657817230e-09  -2.6181067924039786e-07  -4.0124078088776399e-08  7.4149608067294286e-08  -4.9951171476499893e-09  9.5664701070862397e-08  -1.8767903325105973e-07  6.4864640753563052e-09  3.9826761891659334e-09  -7.0783884755708423e-06  -2.9890488067328215e-08  -6.6912855032198120e-08  -4.3410408745292816e-08  -1.7617066562438713e-07  4.8100300968169152e-07  5.6190684508058123e-07  1.2307485573809486e-07  2.1467435173374489e-07  5.3983989559526171e-09  1.6527106050523284e-07  2.0057343278307707e-07  1.7386768338346999e-07  -9.5847850841719255e-10  3.7395353437647354e-08  -2.9908842020899925e-08  1.8420222060303235e-07  -1.1432460305340793e-08  -2.0314317464919472e-07  -1.8772381646760024e-08  -1.0853780833753045e-07  1.0413091900967086e-07  1.0672534055705518e-07  1.6561794809326578e-07  -4.3717980880265565e-08  4.8091806992901450e-09  -7.0989405778670111e-08  -5.5313705075345755e-08  5.4156079824242342e-08  -1.9037596894486001e-07  -4.3106837933620693e-08  6.9142397484822057e-09  -3.8112541137794447e-08  2.7767393816277688e-07  1.2643966760907129e-07  1.9517898330520979e-07  4.5129407075381307e-08  1.2961016376159055e-07  -3.7493730604065392e-09  9.5310762603492852e-08  8.0838063242159390e-08  -1.7434970934126083e-08  2.2534010922154387e-05  -3.3228739499310628e-08  2.5906708006594652e-08  -2.4602992870018233e-06  -6.3176713525818406e-05  1.0340446367416459e-05  -6.6061526070281741e-05  -6.3503554242119368e-05  -7.1026563615405724e-06  -6.4395394228153077e-08  -3.7075653914924153e-08  -4.4726463310652408e-06  -6.5343042840057945e-05  1.3156399914241067e-07  -5.9234939870810800e-05  -6.3215461083340857e-05  1.1728512357569462e-07  -7.3289278698422543e-08  6.9284929904514544e-08  -1.0302511063578251e-08  1.3332231047589773e-08  -8.9010322125902254e-08  6.8453550411111101e-08  -4.0842452834547226e-08  -3.3252735344772476e-11  1.0937647674142704e-07  -2.2484886780201650e-08  6.2238077970264494e-08  5.9734650792787302e-08  1.1115975112167243e-07  2.0890856689706668e-07  -1.8256645234158382e-08  -6.2736582291526703e-10  4.1245739025425244e-09  -5.5156105187562670e-06  -3.3396439963646262e-06  -7.3240693581443417e-07  -2.4173269789583457e-06  -7.5305162805589868e-07  -8.5542062342263879e-07  -2.3860886162011747e-06  1.0926582552987430e-08  1.4078078328140492e-09  -3.4411283141700516e-06  -5.9569879140776796e-06  -6.8661513788957778e-08  -3.2175591752640597e-08  4.6262731189639598e-08  5.3362792696122030e-08  4.6775879544115336e-08  1.2373800170902669e-07  5.4411842611576885e-09  2.6937200385212414e-07  3.1257072953703912e-08  -3.6562212644943507e-08  -3.1203688554097739e-08  9.6922247107184590e-08  -2.7761071595852559e-06  -4.8355246364818398e-05  2.3072964229058881e-07  -6.6043251065215919e-07  1.9130457058544910e-05  -5.0424276419084206e-08  -1.6600815572823241e-07  1.4181510319966481e-07  1.0871344240593385e-07  -1.1599587969185467e-05  1.0651339371672016e-04  2.1502084113634274e-08  -1.2076794262886716e-08  1.4320068601468309e-08  2.0481174537327542e-08  1.5733235142496863e-07  -8.6470426479057433e-08  1.2773760361956121e-07  -2.0670818060031469e-07  -3.6521723040078094e-07  -2.1925806989846783e-08  5.4223377902241582e-08  4.4547745639169551e-08  -9.9442958146745618e-08  -9.4832884536277697e-08  -1.3566346973850442e-08  6.1438986156255159e-08  1.1189832206424307e-07  -3.1009736481866668e-07  -6.0381450948496093e-08  3.2828660223095111e-08  5.8574515643375470e-08  -5.0604145517000159e-09  -6.5935323016053215e-08  5.0077823351467605e-09  1.7528054850841099e-08  2.3309275357864345e-07  -1.2961577371792515e-07  -3.1659539189098652e-07  -5.1744420351270504e-08  1.8614848469579996e-09  1.5995981670010258e-08  3.5547602380595283e-08  -8.3557551078674367e-07  -8.1365053130980193e-07  -5.7588150563227685e-07  1.1282537377352894e-05  1.8458278392010641e-07  -5.8883765528001987e-06  -8.4870068625689130e-07  6.8546053810596960e-05  5.4452578969669265e-08  -5.6282699445423584e-07  -1.7578766158350721e-07  -4.9517257451823696e-07  8.0474298357876283e-08  -2.6079540065081529e-05  -2.8331967248693050e-05  -4.4390604447983745e-08  1.1391432714485733e-07  -6.4003886543662438e-08  -5.1283709271114965e-08  2.0270091496887716e-08  1.0891255631685025e-03  -3.9785390573243245e-06  1.0930980263613731e-07  -3.0355252275872289e-08  -1.5674118849551586e-08  -1.4042737937020032e-07  4.0346345002936660e-08  -2.1247061873471176e-07  4.4231063486222777e-08  9.9353114396826683e-08  4.2385949562406557e-08  -1.6653841164796966e-07  -6.9846880176635968e-08  -5.5873383693287998e-09  -3.8376914661006062e-08  -6.2738271974552993e-07  -7.5338620619381808e-06  6.5052762739654396e-09  3.0447739866020417e-08  4.4369212284502200e-08  8.9438217879464320e-08  1.4927949238768807e-07  -1.0635405660485046e-07  -1.1694803650140046e-07  -1.6643699981078043e-07  -2.1061847541814595e-08  2.0377562367318639e-07  -4.7132552916347313e-08  4.0214021492187998e-08  -3.4884467160242404e-08  1.1870282198555055e-07  -1.9234146076507006e-08  4.6320577227165299e-08  -1.0730057689249102e-07  -4.2331290435770172e-05  -3.5469860017612988e-05  -1.5927217023949317e-04  -4.4816787729176036e-05  -1.3817790525909886e-07  -5.3752088258260662e-08  4.0085210985900002e-05  -8.8856362264708848e-08  -4.9186588930903698e-10  -1.2457340734859461e-05  -2.2625126002652608e-07  -8.1492313797626086e-06  -1.3999896492489612e-07  -2.7138263413917141e-06  -9.8225948800866838e-08  -1.4176737155507257e-07  1.0896003322107955e-07  9.6612169492023528e-08  -1.1110022066993428e-07  2.3336319272663132e-08  8.3332528341757787e-08  -3.4913578799355079e-08  5.8293789580862844e-08  9.4189520245096126e-04  2.4696276281531577e-08  1.7993368270997681e-07  3.3048106715231193e-08  8.2804552338681593e-08  6.8109902716583740e-08  -6.0758124968459031e-08  -1.9465599748682934e-08  6.3149557156539749e-08  2.3983224522067747e-08  -1.0598440870803693e-07  1.3269102343883838e-07  -6.7298195696590027e-08  -6.5005098856002272e-09  3.1170726794455832e-08  1.8988265995030330e-07  9.9115131386212173e-08  9.9079961731979882e-08  5.9712626539569682e-08  -8.1396910842049815e-08  -1.0103120773859527e-07  1.3594968307604937e-08  -1.6347986721674848e-07  -1.1255383648949817e-07  -7.3967985310487368e-08  3.5723641503700203e-08  7.7389929280806990e-09  8.7261908174293388e-08  -7.0805409130979400e-07  3.7905991652412380e-08  3.6968026981396252e-05  -2.3473313956787788e-07  -1.2299718215679613e-05  9.7563180549881828e-08  -1.7891664639213703e-07  -6.4276865206511219e-05  -2.5136696857635369e-06  -2.9897228811450563e-06  -4.6107559217256417e-06  -9.1765533498581981e-07  -3.1801467242149583e-06  -1.0769532608629822e-05  7.5650342807543605e-05  -8.6708875355689803e-08  -2.7388030893838125e-08  1.4339879401062975e-07  -1.9121054960351758e-07  -7.9388066720521334e-08  2.1773854192303456e-07  -1.9501936794372199e-07  9.3528442588315896e-08  1.2929729133957042e-07  -6.4517688149495865e-08  -4.4433715522695468e-09  1.4725325983733007e-07  -9.7835641701179047e-08  -1.4578547258992596e-06  -1.6685962502875406e-07  -1.1324517559277373e-07  -1.1780054590029887e-08  -3.9636629315471809e-06  -7.3732853478957455e-07  9.8197449505861602e-09  6.7520104134661621e-08  -6.1174059587564380e-08  2.1174429649988709e-07  4.5161822417793549e-09  -5.3418804798418656e-08  1.4867910286048182e-07  9.3858327884927266e-09  2.5231516755651518e-08  -5.4523678370250889e-06  -1.4337580028709826e-07  1.7754506498871205e-08  3.7543226504597439e-08  1.9792891952114940e-07  1.0842528319840992e-07  1.8901290069230598e-07  7.0629522781244498e-08  3.2247246125405051e-08  -2.2985186652222784e-08  -2.3807658884474004e-08  1.4939165449271910e-07  -2.1400710809072940e-04  6.3528966918276815e-04  -1.6997622342889571e-06  -9.5572413576814094e-07  -2.2838078642250888e-08  6.1914154999502845e-08  -3.4049827498394191e-08  -1.4137494175460742e-07  -7.3799286732478984e-07  -1.6494452899586580e-07  -3.2544525002593204e-07  -2.6687588067872898e-07  -9.8921073672395247e-07  -5.8423074486079942e-06  2.2871029376296226e-08  7.0397833276113607e-05  8.6404014784631469e-08  1.0233440366503839e-07  -1.7634367435059278e-06  -5.9733077235756492e-05  -1.4914121452902252e-04  -9.0630502716674779e-07  -1.5846644997507718e-06  -1.1707561076445062e-05  -3.6710548007410486e-05  -2.3428261832311096e-04  -6.3585050323837298e-08  8.2907136073510859e-08  2.7820223198618319e-08  1.1774803833013884e-07  6.9419919237103409e-04  -9.3584280284428818e-07  3.5285610746917713e-08  9.7333895588080939e-08  3.6603659150388849e-08  -6.1954882508018264e-08  4.1471710025258657e-08  9.9455087517228173e-08  6.2617364241740172e-09  -1.1201834512968208e-07  -1.0202642861139334e-07  5.7666727626431381e-08  7.1721944078037788e-08  -3.4559310392093731e-07  1.1505097916433612e-07  3.3695001015197302e-08  -9.2019451189142358e-08  -3.5292750749186345e-08  -3.8201537134727130e-08  -1.0752322065644402e-07  -2.8660300509015731e-06  -8.1649844976800946e-07  -6.8894647622866670e-08  -6.7883788181937925e-08  -5.4742005194777046e-08  -5.8789052194735424e-08  -2.2990022455630186e-07  8.9357750258868123e-08  -1.5302437038583590e-07  9.0353366582819501e-08  -3.7442350251739196e-08  -1.1608966536777133e-07  1.5576178104879504e-08  -5.3974200401649612e-08  -5.8365305114570121e-08  -7.1352688227388361e-08  1.0980605628529800e-07  1.4840481962896894e-07  8.3164819139424253e-08  5.4156662379389311e-08  8.8394783880897694e-08  -7.5590621848988237e-08  2.6212514481733199e-07  -2.1352962105722798e-08  -1.7225195257902239e-06  -2.4368038704534098e-07  -3.1320034533081211e-07  -5.0357712220199788e-08  -1.6034090126512165e-09  -1.1282625352706895e-06  4.2762021501627873e-08  -4.3060186856501518e-06  -1.4868194463736456e-06  -3.1383092637528674e-06  7.2035350867308864e-05  -7.7428063512911140e-08  -5.9487704481535294e-08  -5.0684015611180548e-08  2.0012873346866528e-08  8.7359350086588923e-09  -8.6368939939361763e-08  1.1872302156755562e-07  1.4667237405606846e-07  1.1376858485368410e-05  -1.7485042029028294e-05  -4.4579722781391675e-06  2.0552715096842276e-06  1.7400070599812675e-07  5.9136469382683799e-07  -1.7436931079095138e-07  1.0409266130223665e-06  4.2711086650042454e-06  -1.0441545893769987e-05  -8.9328174144796184e-04  -2.7083643860008639e-06  1.8148321328580059e-08  7.8489497622019517e-08  1.1309267404363410e-05  1.6116643819838763e-05  6.2829393748906761e-05  3.8420256559294768e-08  7.5753072244247481e-05  -1.6679463401176873e-07  -3.2736001204639057e-08  -9.8538667674050650e-04  2.8625939978735170e-08  -7.0807754460016780e-09  -1.2634077024562388e-07  -1.3428021178249812e-07  -1.7841822789242700e-08  -3.6954602726835923e-08  1.1031546110468305e-07  1.9975474836444153e-07  -4.2006799625887732e-08  2.9294898990632487e-08  -2.2248319145580966e-08  -1.6311633657942987e-06  -4.7660391960621719e-07  1.2680288193814123e-07  -3.8668556365658005e-09  -4.8789424248622815e-05  -1.9506567999604801e-05  7.3122423623404017e-08  -5.1447606755423924e-08  9.8896445906033981e-08  -7.5869399594986707e-08  1.6718670232213640e-07  -1.2866186889455813e-07  5.8613824039396311e-08  -1.7609130738201261e-05  -8.4419650649318211e-08  3.7081286077872118e-08  -1.7028498313615767e-08  8.2070127252317237e-05  -3.4578413995249776e-06  -2.4080784702813756e-08  3.5645583282098377e-08  -3.3850152387860163e-08  1.7110787749480182e-09  9.8948870333014272e-08  5.6353898851447849e-09  -4.6826434654017814e-08  -8.7844453335723300e-08  6.7119459522058769e-08  -3.6117480139745387e-08  -3.8024937582369090e-05  -2.2409734592175312e-07  -1.7324685697655303e-06  -2.0664664898285705e-08  -1.4252826365232910e-07  -1.3391923559950544e-06  1.1778237315362641e-07  1.2719328738082451e-07  3.4492470163746350e-07  1.7246679465485631e-07  9.4222867323873048e-05  -1.0629981113749271e-06  -1.0362688505350196e-07  -8.8187637885870755e-07  -3.7288466001114948e-06  -2.0995279401445670e-08  -3.3879628554607194e-08  -5.3294605912105120e-08  -2.6629769350599682e-08  -6.0985564155510413e-08  -5.5679765911122874e-09  5.1041257858186736e-08  -1.1209640204593353e-07  -1.5995794239453537e-06  -1.9123193144801553e-06  -2.5094371967505906e-08  -9.1646384729817632e-08  4.3537173629430547e-08  -5.3697088630689174e-08  -1.4122579682685079e-04  -4.6687273245164185e-06  3.0358619337633608e-08  -6.7175033909118980e-07  -2.7150608287314691e-06  1.8467064983583295e-07  -6.1929912571206804e-08  -6.3302484412989237e-06  -1.0872045570107971e-04  -1.2780332981063132e-04  -1.0040001714690876e-04  1.0059889230344929e-07  -1.1453102904080424e-08  1.4076816396110498e-07  1.6572164261479260e-08  -6.3373436836950264e-09  1.6005025308635812e-08  -1.2980712782764050e-07  2.7198509708492493e-08  3.3688604280015815e-08  1.9484348450449189e-08  -1.2929679148025898e-07  3.5677523044586557e-08  2.3310983145091973e-07  9.4919662542917398e-08  5.5299860471795685e-08  -3.5420501941296573e-06  -2.4820473060523144e-06  3.2342771097530686e-08  3.1838508133376799e-08  -8.5574826330311312e-08  8.3777798054380236e-08  1.0496952999467736e-07  3.8060838140788013e-08  -2.1528991615783988e-07  -1.8944866742183133e-07  4.6993230532239111e-08  9.5236059698557993e-08  -9.8601908858232955e-08  -1.0167447390939442e-07  7.3670450364653668e-08  -9.2798313763422588e-10  -3.8217522044388802e-06  -1.2167956207449371e-05  2.5111351914135937e-04  -4.4010917023499902e-07  -1.4845511829040894e-07  -1.0856953550636672e-07  -6.8710262199959513e-08  -4.6457810822442702e-06  -2.3418105386979736e-07  1.1057624216871308e-07  -4.2970056293675393e-05  -1.2904698680224325e-06  -3.4695902505660667e-08  -1.4801025453441029e-09  1.1036379390951311e-07  -1.7607970978706709e-07  1.3670570184062097e-07  1.3892032352630308e-07  1.1374666119019542e-07  9.9120472633810556e-08  6.1443118068132823e-08  1.8434146197748022e-08  1.2891569257019850e-07  -1.1891994537909498e-07  8.0234285404527785e-08  -1.9722761412676700e-07  9.4569809361376788e-08  2.1879088261749018e-07  -2.4339741022423882e-08  7.4803105763686965e-08  8.5591271545763768e-08  3.2610230644213832e-07  -4.7686703085957231e-08  -2.9599728809489857e-07  -2.2155486209425918e-07  1.2111557593474321e-07  4.5741990139729834e-08  -4.5367313287188836e-09  -1.2605368137729643e-08  7.7984344675168701e-08  -9.55358174069743