<?xml version="1.0"?>
<VTKFile type="UnstructuredGrid"  version="0.1"  >
<UnstructuredGrid>
<Piece  NumberOfPoints="16808" NumberOfCells="31534">
<Points>
<DataArray  type="Float64"  NumberOfComponents="3"  format="ascii">0 12.7 0  0 0 0  0.2 0 0  0.2 12.7 0  0.2 6.35 0  0 6.35 0  0 3.175 0  0.2 3.175 0  0 9.524999999999999 0  0.2 9.524999999999999 0  0 11.1125 0  0.2 11.1125 0  0.2 1.5875 0  0 1.5875 0  0.2 4.762499999999999 0  0 4.762499999999999 0  0.2 7.937499999999999 0  0 7.937499999999999 0  0.2 10.31875 0  0 10.31875 0  0.2 11.90625 0  0 11.90625 0  0 5.556249999999999 0  0.2 5.556249999999999 0  0 0.79375 0  0.2 0.79375 0  0 2.38125 0  0.2 2.38125 0  0.2 7.143749999999999 0  0 7.143749999999999 0  0 8.731249999999999 0  0.2 8.731249999999999 0  0 3.96875 0  0.2 3.96875 0  0.2 11.509375 0  0 11.509375 0  0 10.715625 0  0.2 10.715625 0  0 7.540624999999999 0  0.2 7.540624999999999 0  0.2 2.778125 0  0 2.778125 0  0.2 5.159374999999999 0  0 5.159374999999999 0  0.2 5.953125 0  0 5.953125 0  0.2 8.334375 0  0 8.334375 0  0.2 0.396875 0  0 0.396875 0  0 1.190625 0  0.2 1.190625 0  0.2 3.571874999999999 0  0 3.571874999999999 0  0.2 4.365625 0  0 4.365625 0  0.2 1.984375 0  0 1.984375 0  0.2 6.746874999999999 0  0 6.746874999999999 0  0.2 9.128124999999999 0  0 9.128124999999999 0  0.2 9.921874999999998 0  0 9.921874999999998 0  0 12.303125 0  0.2 12.303125 0  0 11.7078125 0  0.2 11.7078125 0  0.2 10.5171875 0  0 10.5171875 0  0.2 8.135937499999999 0  0 8.135937499999999 0  0.2 5.754687499999999 0  0 5.754687499999999 0  0 5.3578125 0  0.2 5.3578125 0  0 7.739062499999999 0  0.2 7.739062499999999 0  0 3.770312499999999 0  0.2 3.770312499999999 0  0.2 1.3890625 0  0 1.3890625 0  0.2 2.579687499999999 0  0 2.579687499999999 0  0 2.9765625 0  0.2 2.9765625 0  0 4.1671875 0  0.2 4.1671875 0  0 0.1984375 0  0.2 0.1984375 0  0 0.5953124999999999 0  0.2 0.5953124999999999 0  0.2 1.7859375 0  0 1.7859375 0  0 2.1828125 0  0.2 2.1828125 0  0.2 0.9921874999999999 0  0 0.9921874999999999 0  0.2 12.1046875 0  0 12.1046875 0  0.2 12.5015625 0  0 12.5015625 0  0 9.723437499999999 0  0.2 9.723437499999999 0  0 8.9296875 0  0.2 8.9296875 0  0 9.326562499999998 0  0.2 9.326562499999998 0  0 6.548437499999999 0  0.2 6.548437499999999 0  0 6.945312499999999 0  0.2 6.945312499999999 0  0 3.3734375 0  0.2 3.3734375 0  0 8.532812499999999 0  0.2 8.532812499999999 0  0 6.1515625 0  0.2 6.1515625 0  0 4.564062499999999 0  0.2 4.564062499999999 0  0 4.960937499999999 0  0.2 4.960937499999999 0  0.2 7.342187499999999 0  0 7.342187499999999 0  0 10.1203125 0  0.2 10.1203125 0  0.2 10.9140625 0  0 10.9140625 0  0 11.3109375 0  0.2 11.3109375 0  0.1 10.81484375 0  0.1 12.00546875 0  0.1 5.85390625 0  0.1 8.235156249999999 0  0.1 8.632031249999999 0  0.1 8.83046875 0  0.1 9.425781249999998 0  0.1 9.624218749999999 0  0.1 10.21953125 0  0.1 10.41796875 0  0.1 10.61640625 0  0.1 11.60859375 0  0.1 11.80703125 0  0.1 11.41015625 0  0.1 5.258593749999999 0  0.1 7.639843749999999 0  0.1 12.7 0  0.1 4.067968749999999 0  0.1 2.87734375 0  0.09999999999999999 2.67890625 0  0.1 3.86953125 0  0.1 1.88515625 0  0.1 0.6945312499999999 0  0.1 1.28984375 0  0.1 1.48828125 0  0.1 2.08359375 0  0.1 0 0  0.1 0.29765625 0  0.1 0.8929687499999999 0  0.09999999999999999 1.09140625 0  0.1 0.4960937499999999 0  0.1 7.242968749999999 0  0.1 4.861718749999999 0  0.1 5.060156249999999 0  0.1 4.464843749999999 0  0.1 4.663281249999999 0  0.09999999999999999 3.47265625 0  0.1 6.846093749999999 0  0.1 7.044531249999999 0  0.1 6.449218749999999 0  0.1 6.647656249999999 0  0.09999999999999999 6.250781249999999 0  0.1 6.05234375 0  0.09999999999999996 1.68671875 0  0.1 4.266406249999999 0  0.1 3.07578125 0  0.09999999999999999 2.28203125 0  0.09999999999999996 2.48046875 0  0.1 3.671093749999999 0  0.1 3.27421875 0  0.09999999999999999 5.457031249999999 0  0.09999999999999996 5.65546875 0  0.09999999999999999 7.441406249999999 0  0.09999999999999999 7.838281249999999 0  0.09999999999999996 8.036718749999999 0  0.1 11.21171875 0  0.1 11.01328125 0  0.1 10.02109375 0  0.1 8.43359375 0  0.1 9.227343749999999 0  0.1 9.02890625 0  0.1 9.82265625 0  0.1 12.40234375 0  0.1 12.20390625 0  0.1 12.5755843996063 0  0 0.09921874999999999 0  0.2 0.09921874999999999 0  0.09999999999999999 0.148828125 0  0.09922180175781284 7.143749999999999 0  0 7.639843749999999 0  0.2 7.639843749999999 0  0 5.258593749999999 0  0.1007781982421872 5.159374999999999 0  0.2 5.258593749999999 0  0.09922180175781285 11.90625 0  0.09922180175781285 11.509375 0  0.1007781982421872 11.7078125 0  0 11.41015625 0  0 11.60859375 0  0.2 11.41015625 0  0.2 11.60859375 0  0.09922180175781285 10.715625 0  0.1007781982421872 10.5171875 0  0.1007781982421872 10.31875 0  0 10.41796875 0  0.2 10.41796875 0  0 10.21953125 0  0.2 10.21953125 0  0.1007781982421872 9.524999999999999 0  0 9.624218749999999 0  0.2 9.624218749999999 0  0 9.425781249999998 0  0.2 9.425781249999998 0  0.1007781982421872 5.953125 0  0.09922180175781285 8.135937499999999 0  0.1007781982421872 8.731249999999999 0  0 8.83046875 0  0.2 8.83046875 0  0 8.632031249999999 0  0.2 8.632031249999999 0  0.2 8.235156249999999 0  0 8.235156249999999 0  0.2 5.85390625 0  0 5.85390625 0  0 11.80703125 0  0 12.00546875 0  0.2 11.80703125 0  0.2 12.00546875 0  0 10.61640625 0  0 10.81484375 0  0.2 10.61640625 0  0.2 10.81484375 0  0.09922180175781287 5.556249999999999 0  0.1007781982421872 11.1125 0  0.09922180175781285 8.334375 0  0.09922180175781285 8.9296875 0  0.09922180175781285 9.723437499999999 0  0.2 12.60078125 0  0 12.60078125 0  0.1007781982421874 1.984375 0  0.1007781982421874 1.3890625 0  0 2.67890625 0  0 2.87734375 0  0.1007781982421874 2.5796875 0  0.2 2.67890625 0  0.2 2.87734375 0  0 3.86953125 0  0 4.067968749999999 0  0.1007781982421874 3.7703125 0  0.2 3.86953125 0  0.2 4.067968749999999 0  0.09922180175781263 2.9765625 0  0 2.08359375 0  0.2 2.08359375 0  0.2 1.48828125 0  0 1.48828125 0  0 1.28984375 0  0.2 1.28984375 0  0 0.6945312499999999 0  0.2 0.6945312499999999 0  0.2 1.88515625 0  0 1.88515625 0  0.09922180175781251 0.9921874999999999 0  0.1007781982421875 0.5953124999999999 0  0 0.29765625 0  0.2 0.29765625 0  0.1007781982421875 0.396875 0  0 0.4960937499999999 0  0.2 0.4960937499999999 0  0.2 1.09140625 0  0 1.09140625 0  0.1007781982421876 0.7937499999999998 0  0 0.8929687499999999 0  0.2 0.8929687499999999 0  0.1007781982421876 7.937499999999998 0  0 8.036718749999999 0  0.2 8.036718749999999 0  0 7.83828125 0  0.2 7.83828125 0  0.1007781982421876 7.739062499999999 0  0.09922180175781239 7.540624999999999 0  0.2 7.441406249999998 0  0.09922180175781239 7.3421875 0  0 7.441406249999998 0  0 5.655468749999999 0  0.09922180175781239 5.754687499999999 0  0.2 5.655468749999999 0  0 5.45703125 0  0.2 5.45703125 0  0.1007781982421876 5.3578125 0  0.1007781982421876 3.175 0  0.09922180175781241 3.571874999999999 0  0 3.671093749999999 0  0.2 3.671093749999999 0  0.1007781982421876 2.38125 0  0 2.48046875 0  0.2 2.48046875 0  0 2.28203125 0  0.2 2.28203125 0  0.1007781982421876 2.1828125 0  0 3.07578125 0  0.09922180175781242 1.5875 0  0 1.68671875 0  0.09922180175781239 1.7859375 0  0.2 1.68671875 0  0 6.05234375 0  0 6.250781249999999 0  0 6.44921875 0  0.2 6.05234375 0  0.2 6.250781249999999 0  0.1007781982421876 6.349999999999999 0  0.2 6.44921875 0  0.1007781982421876 6.548437499999999 0  0.09922180175781242 6.746874999999999 0  0.1007781982421876 6.945312499999998 0  0 6.647656249999999 0  0 6.84609375 0  0.2 6.647656249999999 0  0.2 6.84609375 0  0 3.27421875 0  0 3.47265625 0  0.2 3.07578125 0  0.2 3.27421875 0  0.1007781982421876 3.3734375 0  0.2 3.47265625 0  0.09922180175781244 4.167187499999999 0  0 4.266406249999999 0  0 4.46484375 0  0.2 4.266406249999999 0  0.1007781982421876 4.365625 0  0.2 4.46484375 0  0 5.060156249999999 0  0.2 5.060156249999999 0  0.1007781982421876 4.564062499999999 0  0.09922180175781242 4.762499999999999 0  0.1007781982421876 4.960937499999998 0  0 4.663281249999999 0  0 4.86171875 0  0.2 4.663281249999999 0  0.2 4.86171875 0  0.2 7.044531249999999 0  0.2 7.242968749999999 0  0 7.044531249999999 0  0 7.242968749999999 0  0.09922180175781239 1.190625 0  0.09922180175781241 3.96875 0  0.09922180175781241 2.778125 0  0.09922180175781195 12.303125 0  0.100778198242188 12.1046875 0  0 12.20390625 0  0 12.40234375 0  0.2 12.20390625 0  0.2 12.40234375 0  0 9.028906249999999 0  0 9.227343749999999 0  0.09922180175781198 9.128125000000001 0  0.09922180175781198 9.3265625 0  0.2 9.028906249999999 0  0.2 9.227343749999999 0  0 8.43359375 0  0.09922180175781198 8.5328125 0  0.2 8.43359375 0  0 9.822656249999998 0  0 10.02109375 0  0.09922180175781198 9.921875 0  0.09922180175781198 10.1203125 0  0.2 9.822656249999998 0  0.2 10.02109375 0  0.09922180175781196 10.9140625 0  0 11.01328125 0  0 11.21171875 0  0.09922180175781198 11.3109375 0  0.2 11.01328125 0  0.2 11.21171875 0  0.09922180175781198 6.1515625 0  0.08672180175781248 12.48896407480315 0  0.07461090087890626 0.2232421875 0  0.1253890991210938 0.0744140625 0  0.05038909912109379 4.3164077878937 0  0.1496109008789064 5.605467212106299 0  0.1496109008789064 8.0867202878937 0  0.05038909912109358 5.1101577878937 0  0.05038909912109338 4.514845287893699 0  0.05038909912109338 6.896095287893699 0  0.05038909912109338 6.499220287893699 0  0.05000000000000002 6.002734375 0  0.05000000000000002 3.819921874999999 0  0.1496109008789064 5.5070327878937 0  0.1499999999999996 7.391796874999998 0  0.05038909912109338 4.911720287893699 0  0.1496109008789069 9.971092212106297 0  0.1496109008789069 9.177342212106298 0  0.05038909912109314 12.0554702878937 0  0.149610900878906 12.2539077878937 0  0.05 12.7 0  0.1374999999999996 12.63779219980315 0  0.1496109008789064 9.772654712106299 0  0.1496109008789064 9.6742202878937 0  0.1496109008789064 8.978904712106299 0  0.1496109008789064 8.880470287893701 0  0.1496109008789064 8.383592212106299 0  0.1496109008789064 
[...]
<PointData  Scalars="sigma (Pa)"> 
<DataArray  type="Float64"  Name="sigma (Pa)"  format="ascii">4.3960749291698407e-03  4.2678625726367339e-03  -3.8795932288104985e-03  -4.2404130873938128e-03  -1.8050860784550496e-06  1.5280158536995880e-09  5.9827481952718105e-09  -5.4468444325171420e-08  4.8716211437027247e-08  2.7785131794748974e-08  -8.0323258840392772e-08  -3.1762885362238789e-07  3.1999893781006151e-08  -3.8081340383791281e-08  9.3074965200273757e-09  8.3074382672708308e-09  -4.7784398032127810e-07  -2.0847892835401866e-07  -5.7496465037143611e-09  -5.2160895420580892e-10  9.4791938942255497e-08  8.0215949740055461e-08  2.9341529712846803e-08  -2.2647350157206299e-05  -2.5635821500852965e-08  3.1309364903805042e-08  6.3114620406564005e-09  -4.9140562217255377e-08  -1.1669079527830581e-05  2.2152436082541080e-08  -1.0090790920912694e-07  -2.8472586146238302e-09  -1.6251005576341066e-07  -2.6348591066963684e-08  4.9500213273227826e-08  1.8236595869533074e-07  7.0447452819238415e-09  -1.3064561147124139e-09  1.0199870723412432e-06  -8.5009068789030880e-05  -2.2669620942143321e-08  -1.1850361749982684e-07  7.5320531821985597e-05  -1.7565496387453512e-06  -5.3431315182610377e-06  5.3754849189982195e-09  3.1488160439349890e-08  -2.9590445388046375e-08  7.9294475820443572e-09  -1.5445828370896133e-08  -2.1015307612384994e-08  -2.7506373551522880e-08  -5.1442621862262662e-09  5.8820659282445732e-08  -1.7019688728699241e-08  -7.4510433324232108e-09  -5.7754282183180152e-08  -7.0799452358380230e-09  3.1568418937347179e-06  5.5233178066991056e-11  1.7702403797847619e-09  2.8636249856999546e-08  4.1981368357673438e-09  5.4880336655715508e-08  4.0606199203859840e-08  1.9048985234559002e-07  4.5572784016148681e-08  -4.6422060429284983e-08  3.3317510155191249e-08  -1.1692161357720189e-07  -9.3396379245923784e-08  -2.8917977341945222e-07  -1.0960510238071885e-05  4.1502614845827448e-08  1.7186915155300315e-07  -7.9972276372194999e-05  -4.2289962424492473e-07  2.7325826435493201e-05  -2.7904834122220231e-08  5.9197603330038997e-08  -1.4456349553629634e-08  1.3122601776633860e-07  1.0420197472764992e-07  3.0552174162321785e-08  8.6671946844219391e-09  -9.5397793998390560e-09  -2.0464723364419414e-08  8.7134908379891342e-08  6.5935276149592447e-08  1.4025100637397592e-07  -2.4861460116376918e-08  2.1334935097654959e-08  -4.4766522451531307e-08  -1.0297256059833203e-08  8.8364715549921883e-08  -4.4253226898789756e-08  1.6358741063455778e-09  4.9131283301086397e-08  -3.3931045378542490e-09  2.0293841861373101e-08  -2.6439466226953140e-08  5.3272293701678367e-08  -7.8259362464972793e-09  4.7361500408427723e-08  5.1231604687117307e-08  3.4602794128779808e-08  2.4394686444622282e-08  -7.2495384573671968e-08  -5.1862312455073341e-09  -1.8489000978430697e-06  -1.5971499887548407e-08  -5.7127048598436426e-06  4.0477084012977120e-08  1.2887182582870544e-08  2.1488369225043590e-08  -4.6456417295134694e-08  1.0763809399377545e-08  2.1816080965509438e-06  -2.7897570842687805e-08  -1.4589855766523626e-07  -1.7263220896032426e-07  -5.3128631753451667e-07  -2.4054981193500852e-05  -4.2802723019133697e-08  2.6772328013077479e-08  -7.6197888570235215e-08  2.9947149590766022e-09  1.7022234331504411e-09  -1.5397611679296961e-07  3.9633234421960835e-08  -5.7490310299652172e-08  1.6942336100735321e-08  -2.0394377632428060e-06  -8.0415641852240008e-08  2.5678090967789034e-08  4.0533197196136299e-08  -9.1226857858847810e-08  2.3111005726986266e-09  -4.6056193437793165e-08  8.7174986409179303e-08  2.2123755114195882e-09  -5.2356544898293903e-08  1.9727606638020215e-08  -9.8819352779917163e-09  -9.5870826896304659e-05  -1.0461901227213793e-04  9.5636488308268461e-06  -9.9349944360940533e-08  2.6651142373671550e-08  -6.5553265735069948e-08  -7.0455385022742537e-09  1.1195441983143780e-08  -9.1176945788100956e-08  7.1538423898160400e-08  -4.9546658673176209e-08  -1.6979141757701949e-08  2.5850122973319117e-05  1.1619362739825395e-07  -5.5396741533140083e-08  9.5205112388002877e-08  -2.3363285590318242e-08  -4.9064596022455296e-06  -1.8819686429476945e-06  1.6705365425327015e-04  1.0749742448238216e-07  4.5273119167098914e-08  -1.1866007664771686e-07  -1.2286415832765270e-06  -2.2210832446194894e-06  -4.6151917436812374e-07  -7.7355798217220745e-07  -7.1840536170089556e-07  -1.1446656992850819e-06  -9.5345351758001328e-08  2.5138458707676294e-09  -5.2223392957135051e-08  9.3281652847960272e-09  8.6739059033701392e-09  4.2678242206966662e-08  1.4270272216209561e-07  -1.4049649240521794e-05  -4.2239620360028355e-06  -1.4991455775888228e-05  1.7926047980206119e-04  -1.7346345970280888e-06  4.0536185360640420e-08  -7.1315327261520227e-08  -6.8596709801325903e-08  1.8461832200027694e-08  -4.5722633036999568e-08  2.8807770828009191e-08  7.2908658871007578e-08  2.9518273923381366e-07  -9.1710730826464936e-09  -5.7334301265527956e-07  9.4226490396788646e-07  3.3771041834992012e-07  -4.1618948284069656e-07  -3.2574907057433898e-06  2.1020303854460886e-06  -1.3916099343535765e-04  -4.7965011238510609e-07  8.2157750552366737e-06  -1.2729302485329190e-04  -5.4028868237408146e-08  2.4593745763969554e-08  -2.3990858310656054e-08  -9.8198777951002314e-08  1.7431417552774012e-08  2.0751577946742850e-08  9.2163154657543976e-09  -1.2116430546284816e-07  2.9672466104434423e-08  -7.8359208783871997e-08  1.3649906324521765e-07  -2.9678067988215953e-08  -1.1990073963012021e-07  -4.4494552556571782e-08  1.2906568669029373e-07  -1.0300665065347470e-08  1.0512949630811793e-08  7.2869662564991207e-08  1.3560701147460044e-08  -1.5383625133250085e-06  -2.8239982400119843e-07  1.4975458330116120e-08  8.0077562444787652e-08  -7.7446419617032693e-08  1.8524171190924935e-08  -2.1608931397443009e-08  -4.6633080674115046e-08  -5.3386112740198099e-08  -7.5468020518577210e-06  4.0544394258924858e-09  -1.8256741020110116e-07  -2.7979565515731819e-08  5.1706458177066970e-08  -3.4832259158574342e-09  6.6709484340457257e-08  -1.3087348407090814e-07  4.5231688637813686e-09  2.7772549137506233e-09  -4.9359447958573926e-06  -2.0843421933655094e-08  -4.6660089777585418e-08  -3.0271189278569546e-08  -1.2284839939724787e-07  3.3541593546790597e-07  3.9183228855015083e-07  8.5823295180443679e-08  1.4969801600591491e-07  3.7644462917010688e-09  1.1524781120006282e-07  1.3986507155592568e-07  1.2124241232406107e-07  -6.6838653237975442e-10  2.6076700186745522e-08  -2.0856255208356189e-08  1.2844904574962743e-07  -7.9723075374915400e-09  -1.4165701355978301e-07  -1.3090481692014866e-08  -7.5686234706604144e-08  7.2613198859871618e-08  7.4422359789874034e-08  1.1548972599051888e-07  -3.0485682853876243e-08  3.3535617590310867e-09  -4.9502765426729843e-08  -3.8571685669858965e-08  3.7764459681467524e-08  -1.3275412870490949e-07  -3.0059521864400943e-08  4.8214774644278619e-09  -2.6576867884913555e-08  1.9362927352914524e-07  8.8169675237162754e-08  1.3610339418488488e-07  3.1469913743793758e-08  9.0380543819314327e-08  -2.6145385385877972e-09  6.6462678966284520e-08  5.6370490102741608e-08  -1.2157869050855243e-08  1.5713553113929339e-05  -2.3171253523047243e-08  1.8065437349496885e-08  -1.7156308968517763e-06  -4.4054768919045862e-05  7.2106627350237663e-06  -4.6066423921436802e-05  -4.4282683538094718e-05  -4.9528674384570339e-06  -4.4904520388326625e-08  -2.5853819677083889e-08  -3.1188928458212358e-06  -4.5565406885067050e-05  9.1742964151128417e-08  -4.1306067361913750e-05  -4.4081788663876949e-05  8.1785982345098934e-08  -5.1106508490935615e-08  4.8314195236807719e-08  -7.1842354589005715e-09  9.2969066159679165e-09  -6.2069218013172654e-08  4.7734417099588284e-08  -2.8480493449093893e-08  -2.3170864023338901e-11  7.6271076106984900e-08  -1.5679257752016917e-08  4.3400240710705451e-08  4.1654539085614120e-08  7.7514604109962726e-08  1.4567739501835414e-07  -1.2730929856858596e-08  -4.3744165535652154e-10  2.8761168276909794e-09  -3.8461789653146138e-06  -2.3288208118453383e-06  -5.1072643635043745e-07  -1.6856651631415572e-06  -5.2512250034922930e-07  -5.9650709089001999e-07  -1.6638817984159477e-06  7.6193195671950488e-09  9.8166824345928938e-10  -2.3995884691754576e-06  -4.1539629045586136e-06  -4.7879456837528001e-08  -2.2436881184212837e-08  3.2260227998293539e-08  3.7211284076120858e-08  3.2618014127783760e-08  8.6285728249510497e-08  3.7943613491664684e-09  1.8784005190809594e-07  2.1796311820642612e-08  -2.5495871563758720e-08  -2.1759159556722461e-08  6.7586383111702808e-08  -1.9358519334005093e-06  -3.3719373660288936e-05  1.6089382604745295e-07  -4.6053679944986513e-07  1.3340166370363394e-05  -3.5162105373269809e-08  -1.1576186684132048e-07  9.8891400140219439e-08  7.5808747154759943e-08  -8.0886949580180849e-06  7.4274565703981530e-05  1.4994042534446236e-08  -8.4215032175757448e-09  9.9857582061521259e-09  1.4282103360240479e-08  1.0971196984497236e-07  -6.0298081108803689e-08  8.9074761588656428e-08  -1.4414300293256507e-07  -2.5467549334756373e-07  -1.5289438859102677e-08  3.7811374234639886e-08  3.1064260880030912e-08  -6.9344135396866887e-08  -6.6129452472333015e-08  -9.4601386952488809e-09  4.2843019118479512e-08  7.8029691778184940e-08  -2.1623884483113377e-07  -4.2105539471459301e-08  2.2892308492736661e-08  4.0845515298859133e-08  -3.5287121466828215e-09  -4.5978464308851842e-08  3.4920656788878347e-09  1.2222727118086606e-08  1.6254166733342810e-07  -9.0384459438885828e-08  -2.2077024443585806e-07  -3.6082756224617932e-08  1.2980594762765008e-09  1.1154410685805798e-08  2.4788242901441428e-08  -5.8266856320999868e-07  -5.6737972238358288e-07  -4.0157718393744151e-07  7.8676073815973465e-06  1.2871434541415314e-07  -4.1061184582164341e-06  -5.9182112589629053e-07  4.7798949889608735e-05  3.7971153832971203e-08  -3.9247391655348604e-07  -1.2258134423285993e-07  -3.4529676837404210e-07  5.6116865922301842e-08  -1.8185943012628366e-05  -1.9756619215141109e-05  -3.0954745207732074e-08  7.9435456183325653e-08  -4.4631558566635684e-08  -3.5761467565936135e-08  1.4134863053325915e-08  7.5947564219758885e-04  -2.7743389814355529e-06  7.6224550212577217e-08  -2.1167535819511062e-08  -1.0929953314971118e-08  -9.7923654326174163e-08  2.8134458558513305e-08  -1.4816128509697029e-07  3.0843484536781682e-08  6.9281510408269557e-08  2.9556809680377905e-08  -1.1613155008141839e-07  -4.8706074385548966e-08  -3.8961946772129582e-09  -2.6761226167349259e-08  -4.3749031808115737e-07  -5.2535583947716958e-06  4.5362557172824116e-09  2.1231945445873918e-08  3.0939865654964300e-08  6.2367570488782012e-08  1.0409651414275125e-07  -7.4163465565694613e-08  -8.1550889523472748e-08  -1.1606088318554128e-07  -1.4686949869980484e-08  1.4209804023629675e-07  -3.2866755392188851e-08  2.8042304162645591e-08  -2.4325853837571859e-08  8.2774561416363050e-08  -1.3412474509977453e-08  3.2300547292084215e-08  -7.4823490818445518e-08  -2.9518712150064455e-05  -2.4734057855577968e-05  -1.1106463555451270e-04  -3.1251914206732217e-05  -9.6355054845177233e-08  -3.7482742911464232e-08  2.7952462441772358e-05  -6.1961868548083462e-08  -3.4299326047012419e-10  -8.6868284053326239e-06  -1.5777086158498744e-07  -5.6826714055251504e-06  -9.7624939370964213e-08  -1.8924218448737618e-06  -6.8495524478922104e-08  -9.8858085138835081e-08  7.5980670971530212e-08  6.7370181920702151e-08  -7.7473076535172892e-08  1.6273021705870099e-08  5.8109943734358719e-08  -2.4346150149522312e-08  4.0649774586610031e-08  6.5680807425279124e-04  1.7221355482161412e-08  1.2547244679576962e-07  2.3045328417163079e-08  5.7741772260529959e-08  4.7494809869319461e-08  -4.2368215054531635e-08  -1.3573878865862040e-08  4.4035830086415198e-08  1.6724127874182437e-08  -7.3905696415593456e-08  9.2528916412594706e-08  -4.6928787573410042e-08  -4.5329814100861489e-09  2.1736221454968972e-08  1.3241010690380167e-07  6.9115547085232776e-08  6.9091022109466932e-08  4.1639199307362489e-08  -5.6760254317363679e-08  -7.0451704353988369e-08  9.4801295083145328e-09  -1.1399874096446171e-07  -7.8486706540980606e-08  -5.1579828763502628e-08  2.4911049272987502e-08  5.3966253535323399e-09  6.0849982101230979e-08  -4.9374455064880623e-07  2.6432870393591561e-08  2.5778768759972201e-05  -1.6368549545439887e-07  -8.5769141305209797e-06  6.8033431866226277e-08  -1.2476324094790725e-07  -4.4821933478585395e-05  -1.7528473539977435e-06  -2.0848117498698970e-06  -3.2152002405913456e-06  -6.3990501676985775e-07  -2.2175991469114827e-06  -7.5098757986581924e-06  5.2752955801679745e-05  -6.0464328900420603e-08  -1.9098347781752900e-08  9.9995712939331102e-08  -1.3333608953782611e-07  -5.5359333284076087e-08  1.5183479738966783e-07  -1.3599209795948652e-07  6.5219833262607293e-08  9.0162365909013707e-08  -4.4989865005532827e-08  -3.0984802058894853e-09  1.0268353684228157e-07  -6.8223312040701106e-08  -1.0166000991735430e-06  -1.1635557329611651e-07  -7.8968813954462037e-08  -8.2144491477397389e-09  -2.7639654200633170e-06  -5.1415836466989394e-07  6.8476068776514997e-09  4.7083491838746099e-08  -4.2658280760573403e-08  1.4765480917807571e-07  3.1492416405820370e-09  -3.7250332283714836e-08  1.0367781459975920e-07  6.5449899387108402e-09  1.7594595538481258e-08  -3.8020781777461131e-06  -9.9979655959898676e-08  1.2380607551169771e-08  2.6179877758419382e-08  1.3802096100381676e-07  7.5607716653265677e-08  1.3180359987159471e-07  4.9251829838638876e-08  2.2486844166199380e-08  -1.6028171567124873e-08  -1.6601698422596141e-08  1.0417468683490034e-07  -1.4923273437047668e-04  4.4300404460652192e-04  -1.1852885271265102e-06  -6.6645136701023382e-07  -1.5925635433139072e-08  4.3174364666588655e-08  -2.3743803013111442e-08  -9.8584426863712086e-08  -5.1462167452361922e-07  -1.1502012532762370e-07  -2.2694144618465591e-07  -1.8609958706325654e-07  -6.8980238156402357e-07  -4.0739932523423554e-06  1.5948560536991315e-08  4.9090244091900893e-05  6.0251870518027358e-08  7.1360422156027605e-08  -1.2296904075835624e-06  -4.1653431561931234e-05  -1.0400005607733190e-04  -6.3199014574490500e-07  -1.1050279064087824e-06  -8.1639875217071616e-06  -2.5599221979462088e-05  -1.6337137615942714e-04  -4.4339490620228316e-08  5.7813298986902689e-08  1.9399764931077101e-08  8.2108782860376549e-08  4.8408319045920527e-04  -6.5258761869057515e-07  2.4605552921531488e-08  6.7873470992676781e-08  2.5524732388393305e-08  -4.3202753087159615e-08  2.8919306419402875e-08  6.9352624449756282e-08  4.3664726370561737e-09  -7.8113312135536005e-08  -7.1145687923386214e-08  4.0212510618966944e-08  5.0013581799833799e-08  -2.4099108544383008e-07  8.0228042080261205e-08  2.3496397420431581e-08  -6.4167541324164166e-08  -2.4610556420688841e-08  -2.6638913078202330e-08  -7.4978729330630360e-08  -1.9985575182461106e-06  -5.6936562154618232e-07  -4.8042029254250909e-08  -4.7337155354804349e-08  -3.8173040235975531e-08  -4.0995213968248407e-08  -1.6031544287288527e-07  6.2311492047857764e-08  -1.0670786903701525e-07  6.3005764492196743e-08  -2.6109512264030797e-08  -8.0952381401402867e-08  1.0861679580852385e-08  -3.7637577117293830e-08  -4.0699545424001643e-08  -4.9756088808270093e-08  7.6570625162645103e-08  1.0348656003053900e-07  5.7992988386532082e-08  3.7764841529275459e-08  6.1639972619456588e-08  -5.2711334987733804e-08  1.8278668620313399e-07  -1.4889993418622910e-08  -1.2011577336002339e-06  -1.6992469699335857e-07  -2.1840281595341456e-07  -3.5115762878062423e-08  -1.1181770255212992e-09  -7.8676692637949047e-07  2.9819111279268294e-08  -3.0026991531511944e-06  -1.0367979250781777e-06  -2.1884248574692850e-06  5.0232127696824743e-05  -5.3992599301935032e-08  -4.1482307539769981e-08  -3.5343267408809378e-08  1.3955519462261433e-08  6.0918529381733417e-09  -6.0227289507783087e-08  8.2788642820934525e-08  1.0227846870121670e-07  7.9333799486192029e-06  -1.2192775537495256e-05  -3.1086602622990421e-06  1.4331943924578978e-06  1.2133522771054409e-07  4.1237401459498615e-07  -1.2159226509681023e-07  7.2586525785869127e-07  2.9783553942838767e-06  -7.2811621004708012e-06  -6.2290864083290663e-04  -1.8886130771796132e-06  1.2655297444113402e-08  5.4732772378667268e-08  7.8862469262036413e-06  1.1238555800190785e-05  4.3812573848219289e-05  2.6791437973669176e-08  5.2824591693638043e-05  -1.1631023421146748e-07  -2.2827626876290201e-08  -6.8713581283799284e-04  1.9961615390724361e-08  -4.9376089422876587e-09  -8.8100712292238917e-08  -9.3637143154961405e-08  -1.2441537783861076e-08  -2.5769371558068838e-08  7.6925849136258026e-08  1.3929421060699090e-07  -2.9292433278232136e-08  2.0428101860259941e-08  -1.5514293717607163e-08  -1.1374527384205832e-06  -3.3234826167393009e-07  8.8422958824377241e-08  -2.6964582753292529e-09  -3.4022137241509966e-05  -1.3602438286604403e-05  5.0990171755901242e-08  -3.5875694731825493e-08  6.8963037794731398e-08  -5.2905717363419688e-08  1.1658366907567878e-07  -8.9719256415176878e-08  4.0872912837001486e-08  -1.2279305825721842e-05  -5.8868051618896039e-08  2.5857775398233546e-08  -1.1874422509491932e-08  5.7229638812648332e-05  -2.4112428129095315e-06  -1.6792152835028371e-08  2.4856589508768583e-08  -2.3604590497449305e-08  1.1932058935589849e-09  6.8999623082786279e-08  3.9297625863151222e-09  -3.2653291504761106e-08  -6.1256219107405025e-08  4.6804153612755617e-08  -2.5185632819577827e-08  -2.6515780052946383e-05  -1.5626891399029376e-07  -1.2080954544446848e-06  -1.4410008683418446e-08  -9.9388676680090608e-08  -9.3385371535722290e-07  8.2132743184103570e-08  8.8695169424736577e-08  2.4052498049781068e-07  1.2026558478938404e-07  6.5704061254436073e-05  -7.4125636702649436e-07  -7.2261719083448841e-08  -6.1495542114389979e-07  -2.6002219560569614e-06  -1.4640555115769099e-08  -2.3625145504608994e-08  -3.7163703165539840e-08  -1.8569632188125844e-08  -4.2526818680149943e-08  -3.8826330598820559e-09  3.5592400488128505e-08  -7.8167720192350521e-08  -1.1154283568551790e-06  -1.3335100717564540e-06  -1.7498965586065619e-08  -6.3907401812164124e-08  3.0359605984433667e-08  -3.7444347495910800e-08  -9.8480429009478718e-05  -3.2556253207863678e-06  2.1169854927537417e-08  -4.6842898169109622e-07  -1.8932826739658417e-06  1.2877563190934032e-07  -4.3185313708330127e-08  -4.4142473089658108e-06  -7.5813607440924588e-05  -8.9120592962206124e-05  -7.0011548776054226e-05  7.0150224762295660e-08  -7.9865452437754184e-09  9.8161311053952628e-08  1.1556200934888078e-08  -4.4191911780608097e-09  1.1160703916740943e-08  -9.0517890605281103e-08  1.8966242931647387e-08  2.3491968509878255e-08  1.3586933440917450e-08  -9.0162006392406230e-08  2.4878856565643630e-08  1.6255353414372375e-07  6.6189998734888040e-08  3.8562014288785311e-08  -2.4699639424319050e-06  -1.7307961984440905e-06  2.2553460584892686e-08  2.2201834537751068e-08  -5.9673566598562208e-08  5.8420450441730059e-08  7.3197986851534206e-08  2.6540857343211421e-08  -1.5012725243807318e-07  -1.3210758854042991e-07  3.2769551749961391e-08  6.6410583403741888e-08  -6.8757644001706935e-08  -7.0900242365502112e-08  5.1372327291390081e-08  -6.4710563625714056e-10  -2.6650074237004736e-06  -8.4850331379060621e-06  1.7510800198824897e-04  -3.0689967604923137e-07  -1.0352168193443427e-07  -7.5708384877472699e-08  -4.7913471552361059e-08  -3.2396242274822215e-06  -1.6330055128430529e-07  7.7107688152469661e-08  -2.9964140182737891e-05  -8.9987817899936027e-07  -2.4194345625782550e-08  -1.0321066858564321e-09  7.6959547677003756e-08  -1.2278496083477086e-07  9.5328449718083767e-08  9.6872786616786590e-08  7.9318516269638581e-08  6.9119345300758138e-08  4.2845891603898089e-08  1.2854610090828709e-08  8.9896274101149168e-08  -8.2925976901245785e-08  5.5949457940612820e-08  -1.3753195216617100e-07  6.5945993543753874e-08  1.5256858585871949e-07  -1.6972735650441799e-08  5.2162158001421948e-08  5.9685024116941120e-08  2.2739964044960798e-07  -3.3253168515196607e-08  -2.0640662040588450e-07  -1.5449602622899358e-07  8.4457017895876608e-08  3.1897090897005350e-08  -3.1635824734756930e-09  -8.7900747600041931e-09  5.4380533076376599e-08  -6.66196083847905