<?xml version="1.0"?>
<VTKFile type="UnstructuredGrid"  version="0.1"  >
<UnstructuredGrid>
<Piece  NumberOfPoints="16808" NumberOfCells="31534">
<Points>
<DataArray  type="Float64"  NumberOfComponents="3"  format="ascii">0 12.7 0  0 0 0  0.2 0 0  0.2 12.7 0  0.2 6.35 0  0 6.35 0  0 3.175 0  0.2 3.175 0  0 9.524999999999999 0  0.2 9.524999999999999 0  0 11.1125 0  0.2 11.1125 0  0.2 1.5875 0  0 1.5875 0  0.2 4.762499999999999 0  0 4.762499999999999 0  0.2 7.937499999999999 0  0 7.937499999999999 0  0.2 10.31875 0  0 10.31875 0  0.2 11.90625 0  0 11.90625 0  0 5.556249999999999 0  0.2 5.556249999999999 0  0 0.79375 0  0.2 0.79375 0  0 2.38125 0  0.2 2.38125 0  0.2 7.143749999999999 0  0 7.143749999999999 0  0 8.731249999999999 0  0.2 8.731249999999999 0  0 3.96875 0  0.2 3.96875 0  0.2 11.509375 0  0 11.509375 0  0 10.715625 0  0.2 10.715625 0  0 7.540624999999999 0  0.2 7.540624999999999 0  0.2 2.778125 0  0 2.778125 0  0.2 5.159374999999999 0  0 5.159374999999999 0  0.2 5.953125 0  0 5.953125 0  0.2 8.334375 0  0 8.334375 0  0.2 0.396875 0  0 0.396875 0  0 1.190625 0  0.2 1.190625 0  0.2 3.571874999999999 0  0 3.571874999999999 0  0.2 4.365625 0  0 4.365625 0  0.2 1.984375 0  0 1.984375 0  0.2 6.746874999999999 0  0 6.746874999999999 0  0.2 9.128124999999999 0  0 9.128124999999999 0  0.2 9.921874999999998 0  0 9.921874999999998 0  0 12.303125 0  0.2 12.303125 0  0 11.7078125 0  0.2 11.7078125 0  0.2 10.5171875 0  0 10.5171875 0  0.2 8.135937499999999 0  0 8.135937499999999 0  0.2 5.754687499999999 0  0 5.754687499999999 0  0 5.3578125 0  0.2 5.3578125 0  0 7.739062499999999 0  0.2 7.739062499999999 0  0 3.770312499999999 0  0.2 3.770312499999999 0  0.2 1.3890625 0  0 1.3890625 0  0.2 2.579687499999999 0  0 2.579687499999999 0  0 2.9765625 0  0.2 2.9765625 0  0 4.1671875 0  0.2 4.1671875 0  0 0.1984375 0  0.2 0.1984375 0  0 0.5953124999999999 0  0.2 0.5953124999999999 0  0.2 1.7859375 0  0 1.7859375 0  0 2.1828125 0  0.2 2.1828125 0  0.2 0.9921874999999999 0  0 0.9921874999999999 0  0.2 12.1046875 0  0 12.1046875 0  0.2 12.5015625 0  0 12.5015625 0  0 9.723437499999999 0  0.2 9.723437499999999 0  0 8.9296875 0  0.2 8.9296875 0  0 9.326562499999998 0  0.2 9.326562499999998 0  0 6.548437499999999 0  0.2 6.548437499999999 0  0 6.945312499999999 0  0.2 6.945312499999999 0  0 3.3734375 0  0.2 3.3734375 0  0 8.532812499999999 0  0.2 8.532812499999999 0  0 6.1515625 0  0.2 6.1515625 0  0 4.564062499999999 0  0.2 4.564062499999999 0  0 4.960937499999999 0  0.2 4.960937499999999 0  0.2 7.342187499999999 0  0 7.342187499999999 0  0 10.1203125 0  0.2 10.1203125 0  0.2 10.9140625 0  0 10.9140625 0  0 11.3109375 0  0.2 11.3109375 0  0.1 10.81484375 0  0.1 12.00546875 0  0.1 5.85390625 0  0.1 8.235156249999999 0  0.1 8.632031249999999 0  0.1 8.83046875 0  0.1 9.425781249999998 0  0.1 9.624218749999999 0  0.1 10.21953125 0  0.1 10.41796875 0  0.1 10.61640625 0  0.1 11.60859375 0  0.1 11.80703125 0  0.1 11.41015625 0  0.1 5.258593749999999 0  0.1 7.639843749999999 0  0.1 12.7 0  0.1 4.067968749999999 0  0.1 2.87734375 0  0.09999999999999999 2.67890625 0  0.1 3.86953125 0  0.1 1.88515625 0  0.1 0.6945312499999999 0  0.1 1.28984375 0  0.1 1.48828125 0  0.1 2.08359375 0  0.1 0 0  0.1 0.29765625 0  0.1 0.8929687499999999 0  0.09999999999999999 1.09140625 0  0.1 0.4960937499999999 0  0.1 7.242968749999999 0  0.1 4.861718749999999 0  0.1 5.060156249999999 0  0.1 4.464843749999999 0  0.1 4.663281249999999 0  0.09999999999999999 3.47265625 0  0.1 6.846093749999999 0  0.1 7.044531249999999 0  0.1 6.449218749999999 0  0.1 6.647656249999999 0  0.09999999999999999 6.250781249999999 0  0.1 6.05234375 0  0.09999999999999996 1.68671875 0  0.1 4.266406249999999 0  0.1 3.07578125 0  0.09999999999999999 2.28203125 0  0.09999999999999996 2.48046875 0  0.1 3.671093749999999 0  0.1 3.27421875 0  0.09999999999999999 5.457031249999999 0  0.09999999999999996 5.65546875 0  0.09999999999999999 7.441406249999999 0  0.09999999999999999 7.838281249999999 0  0.09999999999999996 8.036718749999999 0  0.1 11.21171875 0  0.1 11.01328125 0  0.1 10.02109375 0  0.1 8.43359375 0  0.1 9.227343749999999 0  0.1 9.02890625 0  0.1 9.82265625 0  0.1 12.40234375 0  0.1 12.20390625 0  0.1 12.5755843996063 0  0 0.09921874999999999 0  0.2 0.09921874999999999 0  0.09999999999999999 0.148828125 0  0.09922180175781284 7.143749999999999 0  0 7.639843749999999 0  0.2 7.639843749999999 0  0 5.258593749999999 0  0.1007781982421872 5.159374999999999 0  0.2 5.258593749999999 0  0.09922180175781285 11.90625 0  0.09922180175781285 11.509375 0  0.1007781982421872 11.7078125 0  0 11.41015625 0  0 11.60859375 0  0.2 11.41015625 0  0.2 11.60859375 0  0.09922180175781285 10.715625 0  0.1007781982421872 10.5171875 0  0.1007781982421872 10.31875 0  0 10.41796875 0  0.2 10.41796875 0  0 10.21953125 0  0.2 10.21953125 0  0.1007781982421872 9.524999999999999 0  0 9.624218749999999 0  0.2 9.624218749999999 0  0 9.425781249999998 0  0.2 9.425781249999998 0  0.1007781982421872 5.953125 0  0.09922180175781285 8.135937499999999 0  0.1007781982421872 8.731249999999999 0  0 8.83046875 0  0.2 8.83046875 0  0 8.632031249999999 0  0.2 8.632031249999999 0  0.2 8.235156249999999 0  0 8.235156249999999 0  0.2 5.85390625 0  0 5.85390625 0  0 11.80703125 0  0 12.00546875 0  0.2 11.80703125 0  0.2 12.00546875 0  0 10.61640625 0  0 10.81484375 0  0.2 10.61640625 0  0.2 10.81484375 0  0.09922180175781287 5.556249999999999 0  0.1007781982421872 11.1125 0  0.09922180175781285 8.334375 0  0.09922180175781285 8.9296875 0  0.09922180175781285 9.723437499999999 0  0.2 12.60078125 0  0 12.60078125 0  0.1007781982421874 1.984375 0  0.1007781982421874 1.3890625 0  0 2.67890625 0  0 2.87734375 0  0.1007781982421874 2.5796875 0  0.2 2.67890625 0  0.2 2.87734375 0  0 3.86953125 0  0 4.067968749999999 0  0.1007781982421874 3.7703125 0  0.2 3.86953125 0  0.2 4.067968749999999 0  0.09922180175781263 2.9765625 0  0 2.08359375 0  0.2 2.08359375 0  0.2 1.48828125 0  0 1.48828125 0  0 1.28984375 0  0.2 1.28984375 0  0 0.6945312499999999 0  0.2 0.6945312499999999 0  0.2 1.88515625 0  0 1.88515625 0  0.09922180175781251 0.9921874999999999 0  0.1007781982421875 0.5953124999999999 0  0 0.29765625 0  0.2 0.29765625 0  0.1007781982421875 0.396875 0  0 0.4960937499999999 0  0.2 0.4960937499999999 0  0.2 1.09140625 0  0 1.09140625 0  0.1007781982421876 0.7937499999999998 0  0 0.8929687499999999 0  0.2 0.8929687499999999 0  0.1007781982421876 7.937499999999998 0  0 8.036718749999999 0  0.2 8.036718749999999 0  0 7.83828125 0  0.2 7.83828125 0  0.1007781982421876 7.739062499999999 0  0.09922180175781239 7.540624999999999 0  0.2 7.441406249999998 0  0.09922180175781239 7.3421875 0  0 7.441406249999998 0  0 5.655468749999999 0  0.09922180175781239 5.754687499999999 0  0.2 5.655468749999999 0  0 5.45703125 0  0.2 5.45703125 0  0.1007781982421876 5.3578125 0  0.1007781982421876 3.175 0  0.09922180175781241 3.571874999999999 0  0 3.671093749999999 0  0.2 3.671093749999999 0  0.1007781982421876 2.38125 0  0 2.48046875 0  0.2 2.48046875 0  0 2.28203125 0  0.2 2.28203125 0  0.1007781982421876 2.1828125 0  0 3.07578125 0  0.09922180175781242 1.5875 0  0 1.68671875 0  0.09922180175781239 1.7859375 0  0.2 1.68671875 0  0 6.05234375 0  0 6.250781249999999 0  0 6.44921875 0  0.2 6.05234375 0  0.2 6.250781249999999 0  0.1007781982421876 6.349999999999999 0  0.2 6.44921875 0  0.1007781982421876 6.548437499999999 0  0.09922180175781242 6.746874999999999 0  0.1007781982421876 6.945312499999998 0  0 6.647656249999999 0  0 6.84609375 0  0.2 6.647656249999999 0  0.2 6.84609375 0  0 3.27421875 0  0 3.47265625 0  0.2 3.07578125 0  0.2 3.27421875 0  0.1007781982421876 3.3734375 0  0.2 3.47265625 0  0.09922180175781244 4.167187499999999 0  0 4.266406249999999 0  0 4.46484375 0  0.2 4.266406249999999 0  0.1007781982421876 4.365625 0  0.2 4.46484375 0  0 5.060156249999999 0  0.2 5.060156249999999 0  0.1007781982421876 4.564062499999999 0  0.09922180175781242 4.762499999999999 0  0.1007781982421876 4.960937499999998 0  0 4.663281249999999 0  0 4.86171875 0  0.2 4.663281249999999 0  0.2 4.86171875 0  0.2 7.044531249999999 0  0.2 7.242968749999999 0  0 7.044531249999999 0  0 7.242968749999999 0  0.09922180175781239 1.190625 0  0.09922180175781241 3.96875 0  0.09922180175781241 2.778125 0  0.09922180175781195 12.303125 0  0.100778198242188 12.1046875 0  0 12.20390625 0  0 12.40234375 0  0.2 12.20390625 0  0.2 12.40234375 0  0 9.028906249999999 0  0 9.227343749999999 0  0.09922180175781198 9.128125000000001 0  0.09922180175781198 9.3265625 0  0.2 9.028906249999999 0  0.2 9.227343749999999 0  0 8.43359375 0  0.09922180175781198 8.5328125 0  0.2 8.43359375 0  0 9.822656249999998 0  0 10.02109375 0  0.09922180175781198 9.921875 0  0.09922180175781198 10.1203125 0  0.2 9.822656249999998 0  0.2 10.02109375 0  0.09922180175781196 10.9140625 0  0 11.01328125 0  0 11.21171875 0  0.09922180175781198 11.3109375 0  0.2 11.01328125 0  0.2 11.21171875 0  0.09922180175781198 6.1515625 0  0.08672180175781248 12.48896407480315 0  0.07461090087890626 0.2232421875 0  0.1253890991210938 0.0744140625 0  0.05038909912109379 4.3164077878937 0  0.1496109008789064 5.605467212106299 0  0.1496109008789064 8.0867202878937 0  0.05038909912109358 5.1101577878937 0  0.05038909912109338 4.514845287893699 0  0.05038909912109338 6.896095287893699 0  0.05038909912109338 6.499220287893699 0  0.05000000000000002 6.002734375 0  0.05000000000000002 3.819921874999999 0  0.1496109008789064 5.5070327878937 0  0.1499999999999996 7.391796874999998 0  0.05038909912109338 4.911720287893699 0  0.1496109008789069 9.971092212106297 0  0.1496109008789069 9.177342212106298 0  0.05038909912109314 12.0554702878937 0  0.149610900878906 12.2539077878937 0  0.05 12.7 0  0.1374999999999996 12.63779219980315 0  0.1496109008789064 9.772654712106299 0  0.1496109008789064 9.6742202878937 0  0.1496109008789064 8.978904712106299 0  0.1496109008789064 8.880470287893701 0  0.1496109008789064 8.383592212106299 0  0.1496109008789064 
[...]
<PointData  Scalars="sigma (Pa)"> 
<DataArray  type="Float64"  Name="sigma (Pa)"  format="ascii">2.4574813558233769e-02  2.3858084474123187e-02  -2.1687592185288557e-02  -2.3704637139176393e-02  -1.0090739704311651e-05  8.5418600772805942e-09  3.3444579014326504e-08  -3.0448784270778724e-07  2.7233209399493276e-07  1.5532334689283083e-07  -4.4902086677309306e-07  -1.7755998396038883e-06  1.7888487300233153e-07  -2.1288124721228272e-07  5.2030631172840828e-08  4.6440072210790158e-08  -2.6712297994436218e-06  -1.1654327526458305e-06  -3.2141438578219409e-08  -2.9156649332494253e-09  5.2990322907779655e-07  4.4842091392048237e-07  1.6402421484761962e-07  -1.2660257517971887e-04  -1.4330862180905332e-07  1.7502470618325816e-07  3.5282018886532744e-08  -2.7470413909316142e-07  -6.5232156878630801e-05  1.2383590996642257e-07  -5.6409230150345494e-07  -1.5916772869051985e-08  -9.0845919351827231e-07  -1.4729318451351632e-07  2.7671469568125121e-07  1.0194570355800501e-06  3.9381297023926787e-08  -7.3032885390503086e-09  5.7019029257942153e-06  -4.7521528837007833e-04  -1.2672717333966475e-07  -6.6245544371754867e-07  4.2105470374740348e-04  -9.8194140600294904e-06  -2.9869022515404788e-05  3.0050107669186395e-08  1.7602468568337762e-07  -1.6541570059216071e-07  4.4326972712796391e-08  -8.6344848411092990e-08  -1.1747912758831299e-07  -1.5376531513846202e-07  -2.8757698628059523e-08  3.2881739502760012e-07  -9.5142833894374436e-08  -4.1652515299338979e-08  -3.2285627062290760e-07  -3.9578106786356264e-08  1.7647288468200375e-05  3.0828253980696369e-10  9.8955354390276540e-09  1.6008159647256046e-07  2.3468786535398681e-08  3.0679048917172527e-07  2.2699562103077705e-07  1.0648709825883952e-06  2.5475967550005233e-07  -2.5950728282191737e-07  1.8625062659498581e-07  -6.5361186324516842e-07  -5.2210190432292408e-07  -1.6165645423804567e-06  -6.1271133689383501e-05  2.3200697875140644e-07  9.6077803640496383e-07  -4.4705875605705850e-04  -2.3640815331603558e-06  1.5275606070951604e-04  -1.5599323948053585e-07  3.3092513517398109e-07  -8.0813529537734721e-08  7.3357602618450211e-07  5.8250689841161774e-07  1.7079204371413177e-07  4.8450718376125587e-08  -5.3328874139434342e-08  -1.1440091293335126e-07  4.8709898657653656e-07  3.6858951119997788e-07  7.8402720223504722e-07  -1.3897984467653909e-07  1.1926596537170925e-07  -2.5025263249394692e-07  -5.7563504096703455e-08  4.9397418531289102e-07  -2.4738323451660006e-07  9.1447880593479429e-09  2.7465229401320222e-07  -1.8968025379838809e-08  1.1344606465893668e-07  -1.4780115427107452e-07  2.9780126271615773e-07  -4.3748618016995379e-08  2.6475885828006804e-07  2.8639321692520713e-07  1.9343556998545476e-07  1.3637055939530963e-07  -4.0526183754903184e-07  -2.8991759667249313e-08  -1.0335668540380595e-05  -8.9283049236068504e-08  -3.1935001042160266e-05  2.2627386280467734e-07  7.2041623773483409e-08  1.2012399097462548e-07  -2.5969920189944951e-07  6.0171690322260995e-08  1.2195564012542434e-05  -1.5595226067294259e-07  -8.1559781276242227e-07  -9.6504372481146273e-07  -2.9699816777879429e-06  -1.3447147373115334e-04  -2.3927409945784353e-07  1.4966175644471807e-07  -4.2595923375729871e-07  1.6741110396566535e-08  9.5156798732946389e-09  -8.6075281523897597e-07  2.2155652243652403e-07  -3.2138058396291921e-07  9.4710570353863454e-08  -1.1400807460905255e-05  -4.4953723904548448e-07  1.4354494908157222e-07  2.2658728440781692e-07  -5.0997350728275646e-07  1.2919578849609245e-08  -2.5746217075824972e-07  4.8732306303268657e-07  1.2367644479437806e-08  -2.9268206581554643e-07  1.1028070887271875e-07  -5.5241633842235953e-08  -5.3593438099586394e-04  -5.8483823933163314e-04  5.3462438821072176e-05  -5.5538295614097192e-07  1.4898448937655509e-07  -3.6645411937931667e-07  -3.9385821963247818e-08  6.2584427781405205e-08  -5.0969480403683679e-07  3.9991206376934256e-07  -2.7697430603682198e-07  -9.4916334832860334e-08  1.4450662528770730e-04  6.4954232470176944e-07  -3.0967727485584443e-07  5.3221291254145025e-07  -1.3060477331320382e-07  -2.7427951814945809e-05  -1.0520527789541225e-05  9.3385860636874686e-04  6.0092920044380215e-07  2.5308430078347548e-07  -6.6332972537686519e-07  -6.8683173623455954e-06  -1.2416236685386184e-05  -2.5799714558685749e-06  -4.3243218153845177e-06  -4.0160098387773895e-06  -6.3988782355278326e-06  -5.3299688925248936e-07  1.4052749356173792e-08  -2.9193776843722354e-07  5.2145988723521321e-08  4.8488556998784818e-08  2.3857842595575266e-07  7.9773262080750548e-07  -7.8539951751694845e-05  -2.3612672711702529e-05  -8.3804811835021489e-05  1.0020968566314464e-03  -9.6969052006874694e-06  2.2660428478562849e-07  -3.9866494330964209e-07  -3.8346728564302292e-07  1.0320450358622687e-07  -2.5559706633387898e-07  1.6104020110773270e-07  4.0757198835636799e-07  1.6501221868495130e-06  -5.1267864589367910e-08  -3.2050858709557295e-06  5.2674225775529709e-06  1.8878592155192949e-06  -2.3265706588789411e-06  -1.8209932067288064e-05  1.1750710677558090e-05  -7.7793384367699921e-04  -2.6813267027324181e-06  4.5927593023480043e-05  -7.1158986194334861e-04  -3.0203061011218930e-07  1.3748322116247693e-07  -1.3411300999110175e-07  -5.4894807351067918e-07  9.7444622221864758e-08  1.1600490417414187e-07  5.1520844057675021e-08  -6.7732919150405985e-07  1.6587425203879031e-07  -4.3804158617618143e-07  7.6305326095502437e-07  -1.6590520857165355e-07  -6.7026594151771032e-07  -2.4873224861942951e-07  7.2149941426679239e-07  -5.7582492824391601e-08  5.8769012580100346e-08  4.0735367685240028e-07  7.5806916063444698e-08  -8.5997109302290340e-06  -1.5786636978503882e-06  8.3715311176431122e-08  4.4764733372524240e-07  -4.3293952595230525e-07  1.0355356028868118e-07  -1.2079784686615251e-07  -2.6068754335529646e-07  -2.9843767955199932e-07  -4.2187919124659406e-05  2.2665089077947277e-08  -1.0205831421617067e-06  -1.5641057938257219e-07  2.8904793170953512e-07  -1.9471833061875099e-08  3.7291742049011268e-07  -7.3160522149271134e-07  2.5285218459928836e-08  1.5525229108227278e-08  -2.7592778631612199e-05  -1.1651826454310132e-07  -2.6083799332991835e-07  -1.6922133626258504e-07  -6.8674367203413379e-07  1.8750326633384765e-06  2.1904097614350001e-06  4.7976706830601746e-07  8.3683763895151523e-07  2.1043896392798023e-08  6.4425503139365385e-07  7.8186986557048753e-07  6.7776622841700225e-07  -3.7363052119858231e-09  1.4577377138094019e-07  -1.1658992674006375e-07  7.1805224421663634e-07  -4.4566234873777826e-08  -7.9188692674369546e-07  -7.3178074601565472e-08  -4.2309890131261091e-07  4.0592023258164611e-07  4.1603372980403758e-07  6.4560730966691028e-07  -1.7042016869757919e-07  1.8747049505179934e-08  -2.7672895172464979e-07  -2.1562235934180490e-07  2.1110981465020685e-07  -7.4211842718615253e-07  -1.6803786096227404e-07  2.6952898650519183e-08  -1.4856925258951296e-07  1.0824208811881286e-06  4.9288362373901800e-07  7.6084132514292502e-07  1.7592222272829149e-07  5.0524274542015851e-07  -1.4615720426078191e-08  3.7153776406038397e-07  3.1512074447957039e-07  -6.7964565631732403e-08  8.7841459633268703e-05  -1.2953156079477630e-07  1.0098933742059880e-07  -9.5906708962323096e-06  -2.4627372203178357e-04  4.0308843136916297e-05  -2.5751921836245469e-04  -2.4754780343708805e-04  -2.7687379312144558e-05  -2.5102407123995239e-07  -1.4452731992050141e-07  -1.7435146688581385e-05  -2.5471844692149674e-04  5.1285950231800078e-07  -2.3090800804703867e-04  -2.4642476641017970e-04  4.5719781489692737e-07  -2.8569411317455973e-07  2.7008459850777534e-07  -4.0161154949202168e-08  5.1971312892984944e-08  -3.4697771648580455e-07  2.6684369844139098e-07  -1.5921081336639765e-07  -1.2941000436846910e-10  4.2636831953566736e-07  -8.7649856197823024e-08  2.4261486732665826e-07  2.3285600698828750e-07  4.3331988716123312e-07  8.1436165171937206e-07  -7.1167980595305872e-08  -2.4451139414390604e-09  1.6077949839050569e-08  -2.1500800973577904e-05  -1.3018507622265360e-05  -2.8550485643435330e-06  -9.4231571436419484e-06  -2.9355251455299658e-06  -3.3345767760035074e-06  -9.3013850935028483e-06  4.2593540649458697e-08  5.4876772226961533e-09  -1.3414111567152515e-05  -2.3221366355124185e-05  -2.6765450680473814e-07  -1.2542597408593280e-07  1.8034015911074792e-07  2.0801753515296405e-07  1.8234028102296869e-07  4.8235176147389319e-07  2.1210687398270220e-08  1.0500583754227613e-06  1.2184542277926262e-07  -1.4252556805415331e-07  -1.2163747961362503e-07  3.7781970020774420e-07  -1.0821744539906177e-05  -1.8849708776333312e-04  8.9942362890936279e-07  -2.5744797585956727e-06  7.4573820299077978e-05  -1.9656244114364979e-07  -6.4712831523478581e-07  5.5282006893782692e-07  4.2378363501305035e-07  -4.5217193183923256e-05  4.1520757281194692e-04  8.3819247287630684e-08  -4.7077933882063538e-08  5.5822137334032627e-08  7.9838933032103898e-08  6.1330880281083116e-07  -3.3707663331904281e-07  4.9794319662720399e-07  -8.0578412821032188e-07  -1.4236797280341305e-06  -8.5470584509010419e-08  2.1137207499426702e-07  1.7365472741937582e-07  -3.8764589757567498e-07  -3.6967512130658346e-07  -5.2883932252121313e-08  2.3949967674318918e-07  4.3619947680938949e-07  -1.2088127814348829e-06  -2.3537744008038590e-07  1.2797121846085390e-07  2.2833355889442669e-07  -1.9726305447678706e-08  -2.5702718401835189e-07  1.9521148432234058e-08  6.8327269441321685e-08  9.0863580417008045e-07  -5.0526469110724473e-07  -1.2341434506013638e-06  -2.0170867032652616e-07  7.2563892200304165e-09  6.2355032994287509e-08  1.3857069063418155e-07  -3.2572174300091131e-06  -3.1717500541596642e-06  -2.2448853991636404e-06  4.3981275948921751e-05  7.1953525762724065e-07  -2.2953906871896759e-05  -3.3083814361219422e-06  2.6720433613317110e-04  2.1226562398823692e-07  -2.1939967766916674e-06  -6.8525054173768859e-07  -1.9302683997725146e-06  3.1370284161445532e-07  -1.0166254394139569e-04  -1.1044289319359116e-04  -1.7304252985955448e-07  4.4405774807729589e-07  -2.4949821440544909e-07  -1.9991274205619406e-07  7.9016309351050509e-08  4.2455992242493449e-03  -1.5509031195960901e-05  4.2610807689626441e-07  -1.1833017357831612e-07  -6.1100554798556599e-08  -5.4740984628772838e-07  1.5727675858543350e-07  -8.2824670305311159e-07  1.7242030984922445e-07  3.8729555232417914e-07  1.6522766699735486e-07  -6.4919548395712234e-07  -2.7227542346827059e-07  -2.1780377867763369e-08  -1.4959987506791096e-07  -2.4456461949906059e-06  -2.9368293174678332e-05  2.5358793206402457e-08  1.1869048768286946e-07  1.7295901319599570e-07  3.4864566407478378e-07  5.8191732668529661e-07  -4.1458643253032657e-07  -4.5588354668795738e-07  -6.4880022149543708e-07  -8.2102554336555983e-08  7.9435229050787588e-07  -1.8373078168796412e-07  1.5676134385833825e-07  -1.3598569485434974e-07  4.6272407774411545e-07  -7.4978017904964952e-08  1.8056562686693205e-07  -4.1827615988372102e-07  -1.6501466833377008e-04  -1.3826762947610923e-04  -6.2087038012711526e-04  -1.7470356549553455e-04  -5.3864129568105165e-07  -2.0953502638404084e-07  1.5625906359908727e-04  -3.4637745934779009e-07  -1.9173413213177459e-09  -4.8560862143573298e-05  -8.8196642842670446e-07  -3.1767109217574813e-05  -5.4574014655824613e-07  -1.0578963029060066e-05  -3.8290173150603850e-07  -5.5263371742419487e-07  4.2474501446350125e-07  3.7661090834435621e-07  -4.3308780037856564e-07  9.0968985993472315e-08  3.2484456638405372e-07  -1.3609915496844830e-07  2.2723924908124435e-07  3.6716698937960162e-03  9.6270339008087193e-08  7.0141251715688951e-07  1.2882706642443658e-07  3.2278641933337801e-07  2.6550414591779370e-07  -2.3684571099166836e-07  -7.5880066115684560e-08  2.4616789937364719e-07  9.3490728820020172e-08  -4.1314547852130523e-07  5.1725244733644835e-07  -2.6233995208504284e-07  -2.5340123482888904e-08  1.2150910987249119e-07  7.4019531962381042e-07  3.8636773130159954e-07  3.8623088382902837e-07  2.3277017860239490e-07  -3.1729945065824321e-07  -3.9383713421461297e-07  5.2995564660931689e-08  -6.3727277037805053e-07  -4.3875437473125330e-07  -2.8834008538333322e-07  1.3925676132238330e-07  3.0168136293619974e-08  3.4016202154940926e-07  -2.7601171634112444e-06  1.4776416253582847e-07  1.4410774311487119e-04  -9.1503010857586898e-07  -4.7946422540540234e-05  3.8031817028921017e-07  -6.9744790997873802e-07  -2.5056230292631074e-04  -9.7987176460521981e-06  -1.1654455572886645e-05  -1.7973521258568805e-05  -3.5771786509532357e-06  -1.2396760040802914e-05  -4.1981494971122849e-05  2.9489807938868766e-04  -3.3800597363098438e-07  -1.0676346134965071e-07  5.5899322796634872e-07  -7.4537169643490157e-07  -3.0946835470567722e-07  8.4878271415548984e-07  -7.6021932544434242e-07  3.6459002204506531e-07  5.0402334547653485e-07  -2.5150107008313296e-07  -1.7321036734043151e-08  5.7401866373199991e-07  -3.8138023908740497e-07  -5.6829691690662032e-06  -6.5044755822356406e-07  -4.4144920311918854e-07  -4.5920478530822628e-08  -1.5451041488995346e-05  -2.8742335959248820e-06  3.8279230827767350e-08  2.6320502225212537e-07  -2.3846681380997554e-07  8.2541591030321787e-07  1.7604881586432302e-08  -2.0823578635466355e-07  5.7957680686332029e-07  3.6587589075015343e-08  9.8356816088473021e-08  -2.1254269608592386e-05  -5.5890324494836601e-07  6.9209746063756753e-08  1.4635024303519410e-07  7.7156081598908736e-07  4.2266048019790003e-07  7.3680473370858859e-07  2.7532614252174948e-07  1.2570530163109874e-07  -8.9600232865226794e-08  -9.2806364294092037e-08  5.8235436178484777e-07  -8.3423660497493714e-04  2.4764686625094010e-03  -6.6259663795024632e-06  -3.7255773607975078e-06  -8.9026756774251557e-08  2.4135207535766865e-07  -1.3273242056311228e-07  -5.5110363685108554e-07  -2.8768232854168035e-06  -6.4298211842568304e-07  -1.2686416693244575e-06  -1.0403284675824464e-06  -3.8561137841395184e-06  -2.2774321757627109e-05  8.9155073840600890e-08  2.7442289152171623e-04  3.3681805992006182e-07  3.9891720541129188e-07  -6.8741804379968064e-06  -2.3284983342080790e-04  -5.8137816829271398e-04  -3.5329332297096703e-06  -6.1772957372685817e-06  -4.5638091478325328e-05  -1.4310404559434464e-04  -9.1327403994689448e-04  -2.4786530842979297e-07  3.2318631101499988e-07  1.0844798398814041e-07  4.5900215501517645e-07  2.7061081404176250e-03  -3.6480767124403518e-06  1.3754934084146688e-07  3.7942408106476035e-07  1.4268741882919212e-07  -2.4151081549507645e-07  1.6166390234194858e-07  3.8769307922647856e-07  2.4409331488372718e-08  -4.3666682931824975e-07  -3.9771661398105695e-07  2.2479485158003528e-07  2.7958449193218179e-07  -1.3471815070102780e-06  4.4848853963864665e-07  1.3134912023557067e-07  -3.5870780209999058e-07  -1.3757723450139042e-07  -1.4891614093829968e-07  -4.1914396150866330e-07  -1.1172279303192906e-05  -3.1828516257326799e-06  -2.6856323738364770e-07  -2.6462261011537408e-07  -2.1339378038637385e-07  -2.2916991411154274e-07  -8.9619088784865922e-07  3.4833208520366673e-07  -5.9651538844466514e-07  3.5221309541739476e-07  -1.4595651180448213e-07  -4.5253764123572135e-07  6.0718640921811577e-08  -2.1040072711091705e-07  -2.2751750428821152e-07  -2.7814508193874950e-07  4.2804293969629389e-07  5.7850757873861581e-07  3.2419080620551169e-07  2.1111204092203121e-07  3.4457803607673610e-07  -2.9466537435292520e-07  1.0218088538607785e-06  -8.3237580060618342e-08  -6.7146779589467382e-06  -9.4990830327358884e-07  -1.2209088252564911e-06  -1.9630286495937367e-07  -6.2508851821051219e-09  -4.3981621226567878e-06  1.6669376279347310e-07  -1.6785603285799415e-05  -5.7958779667392469e-06  -1.2233670782834962e-05  2.8080621798106618e-04  -3.0182792165650069e-07  -2.3189332824944170e-07  -1.9757471480919883e-07  7.8013713882321641e-08  3.4054135415645554e-08  -3.3668088491857054e-07  4.6280233676710368e-07  5.7175418909101774e-07  4.4348955890174133e-05  -6.8159708471408054e-05  -1.7377944551427683e-05  8.0118027008313003e-06  6.7828475164088682e-07  2.3052415363492540e-06  -6.7972163728186626e-07  4.0577114067174414e-06  1.6649517969260029e-05  -4.0702946148542181e-05  -3.4821662412320869e-03  -1.0557671332427756e-05  7.0745285830325862e-08  3.0596559448771674e-07  4.4085474203131910e-05  6.2825456322097427e-05  2.4491980941495858e-04  1.4976874617243455e-07  2.9529853659073684e-04  -6.5019408598817645e-07  -1.2761046919038680e-07  -3.8412071590573828e-03  1.1158886381657086e-07  -2.7601836497345627e-08  -4.9249810610731914e-07  -5.2344769142862666e-07  -6.9550672788569132e-08  -1.4405547180083857e-07  4.3002872041190625e-07  7.7867849757574098e-07  -1.6374972731974777e-07  1.1419655654270211e-07  -8.6727641761104183e-08  -6.3585563953244677e-06  -1.8578843424401062e-06  4.9429946279229813e-07  -1.5073667738322392e-08  -1.9018958804188711e-04  -7.6039965055042452e-05  2.8504380661882999e-07  -2.0055158549098295e-07  3.8551571853191748e-07  -2.9575226041436061e-07  6.5172244261410305e-07  -5.0154588318644580e-07  2.2848686166580127e-07  -6.8643427589938039e-05  -3.2908236754754167e-07  1.4454944473496308e-07  -6.6380074941182982e-08  3.1992350640602953e-04  -1.3479262004971532e-05  -9.3870934765490838e-08  1.3895259934433222e-07  -1.3195370067838751e-07  6.6701797331145708e-09  3.8571973634847712e-07  2.1967871804528738e-08  -1.8253760038800556e-07  -3.4243281121424016e-07  2.6164318659576234e-07  -1.4079184345470568e-07  -1.4822776255539745e-04  -8.7357006611187106e-07  -6.7534612949972045e-06  -8.0554427494011196e-08  -5.5559973309030092e-07  -5.2204023084673694e-06  4.5913622034171662e-07  4.9582147409483365e-07  1.3445760625809721e-06  6.7230519334762253e-07  3.6729698211559623e-04  -4.1437498715925046e-06  -4.0395568268195981e-07  -3.4377060751894718e-06  -1.4535687300127310e-05  -8.1843218617947894e-08  -1.3206855001134248e-07  -2.0775143600800334e-07  -1.0380742272641109e-07  -2.3773216976364370e-07  -2.1704290772717241e-08  1.9896775246001664e-07  -4.3697089742314187e-07  -6.2354361728159722e-06  -7.4545498743947129e-06  -9.7822239680795301e-08  -3.5725346037159759e-07  1.6971541658236949e-07  -2.0932041447534519e-07  -5.5052250490204011e-04  -1.8199504131134265e-05  1.1834314764705839e-07  -2.6185982592923580e-06  -1.0583775494933159e-05  7.1987806965560291e-07  -2.4141340111445722e-07  -2.4676400119330103e-05  -4.2381108138548457e-04  -4.9819941477784093e-04  -3.9137657706630146e-04  3.9215181992872012e-07  -4.4646164500350066e-08  5.4873855293627307e-07  6.4601180688327694e-08  -2.4704046147051086e-08  6.2390312866411445e-08  -5.0601043669914476e-07  1.0602449316724566e-07  1.3132401797385308e-07  7.5953373362503865e-08  -5.0402099148229016e-07  1.3907743808304528e-07  9.0870221051619305e-07  3.7001347087665470e-07  2.1556834322767723e-07  -1.3807522626527201e-05  -9.6754483235877890e-06  1.2607768010666141e-07  1.2411192361859039e-07  -3.3358556979796674e-07  3.2658033713765281e-07  4.0918923303303301e-07  1.4836778599076198e-07  -8.3923754134588460e-07  -7.3850399067020357e-07  1.8318731868333393e-07  3.7124648513453700e-07  -3.8436710202444825e-07  -3.9634434225063873e-07  2.8718019157275141e-07  -3.6174359891112163e-09  -1.4897848838989092e-05  -4.7432791680070095e-05  9.7888379297416967e-04  -1.7156214861733918e-06  -5.7870348568095721e-07  -4.2322284060879760e-07  -2.6784454944963572e-07  -1.8110055384167116e-05  -9.1287810968884486e-07  4.3104484232874679e-07  -1.6750468774824278e-04  -5.0304734194127106e-06  -1.3525064019525077e-07  -5.7696239006124369e-09  4.3021713416712789e-07  -6.8638908260007520e-07  5.3290240981208094e-07  5.4153537224788717e-07  4.4340407585584614e-07  3.8638882338869942e-07  2.3951589451017228e-07  7.1859493200609546e-08  5.0253562272068496e-07  -4.6357046027289616e-07  3.1276707508676258e-07  -7.6882722505958689e-07  3.6864942034294190e-07  8.5288460242944757e-07  -9.4880512506279750e-08  2.9159539467568211e-07  3.3364953778590373e-07  1.2712030363633397e-06  -1.8589080553949311e-07  -1.1538481528799224e-06  -8.6365955579138195e-07  4.7212934861596892e-07  1.7831009301680519e-07  -1.7684994125766622e-08  -4.9137981261410306e-08  3.0399618845055118e-07  -3.72415017856907