<?xml version="1.0"?>
<VTKFile type="UnstructuredGrid"  version="0.1"  >
<UnstructuredGrid>
<Piece  NumberOfPoints="16808" NumberOfCells="31534">
<Points>
<DataArray  type="Float64"  NumberOfComponents="3"  format="ascii">0 12.7 0  0 0 0  0.2 0 0  0.2 12.7 0  0.2 6.35 0  0 6.35 0  0 3.175 0  0.2 3.175 0  0 9.524999999999999 0  0.2 9.524999999999999 0  0 11.1125 0  0.2 11.1125 0  0.2 1.5875 0  0 1.5875 0  0.2 4.762499999999999 0  0 4.762499999999999 0  0.2 7.937499999999999 0  0 7.937499999999999 0  0.2 10.31875 0  0 10.31875 0  0.2 11.90625 0  0 11.90625 0  0 5.556249999999999 0  0.2 5.556249999999999 0  0 0.79375 0  0.2 0.79375 0  0 2.38125 0  0.2 2.38125 0  0.2 7.143749999999999 0  0 7.143749999999999 0  0 8.731249999999999 0  0.2 8.731249999999999 0  0 3.96875 0  0.2 3.96875 0  0.2 11.509375 0  0 11.509375 0  0 10.715625 0  0.2 10.715625 0  0 7.540624999999999 0  0.2 7.540624999999999 0  0.2 2.778125 0  0 2.778125 0  0.2 5.159374999999999 0  0 5.159374999999999 0  0.2 5.953125 0  0 5.953125 0  0.2 8.334375 0  0 8.334375 0  0.2 0.396875 0  0 0.396875 0  0 1.190625 0  0.2 1.190625 0  0.2 3.571874999999999 0  0 3.571874999999999 0  0.2 4.365625 0  0 4.365625 0  0.2 1.984375 0  0 1.984375 0  0.2 6.746874999999999 0  0 6.746874999999999 0  0.2 9.128124999999999 0  0 9.128124999999999 0  0.2 9.921874999999998 0  0 9.921874999999998 0  0 12.303125 0  0.2 12.303125 0  0 11.7078125 0  0.2 11.7078125 0  0.2 10.5171875 0  0 10.5171875 0  0.2 8.135937499999999 0  0 8.135937499999999 0  0.2 5.754687499999999 0  0 5.754687499999999 0  0 5.3578125 0  0.2 5.3578125 0  0 7.739062499999999 0  0.2 7.739062499999999 0  0 3.770312499999999 0  0.2 3.770312499999999 0  0.2 1.3890625 0  0 1.3890625 0  0.2 2.579687499999999 0  0 2.579687499999999 0  0 2.9765625 0  0.2 2.9765625 0  0 4.1671875 0  0.2 4.1671875 0  0 0.1984375 0  0.2 0.1984375 0  0 0.5953124999999999 0  0.2 0.5953124999999999 0  0.2 1.7859375 0  0 1.7859375 0  0 2.1828125 0  0.2 2.1828125 0  0.2 0.9921874999999999 0  0 0.9921874999999999 0  0.2 12.1046875 0  0 12.1046875 0  0.2 12.5015625 0  0 12.5015625 0  0 9.723437499999999 0  0.2 9.723437499999999 0  0 8.9296875 0  0.2 8.9296875 0  0 9.326562499999998 0  0.2 9.326562499999998 0  0 6.548437499999999 0  0.2 6.548437499999999 0  0 6.945312499999999 0  0.2 6.945312499999999 0  0 3.3734375 0  0.2 3.3734375 0  0 8.532812499999999 0  0.2 8.532812499999999 0  0 6.1515625 0  0.2 6.1515625 0  0 4.564062499999999 0  0.2 4.564062499999999 0  0 4.960937499999999 0  0.2 4.960937499999999 0  0.2 7.342187499999999 0  0 7.342187499999999 0  0 10.1203125 0  0.2 10.1203125 0  0.2 10.9140625 0  0 10.9140625 0  0 11.3109375 0  0.2 11.3109375 0  0.1 10.81484375 0  0.1 12.00546875 0  0.1 5.85390625 0  0.1 8.235156249999999 0  0.1 8.632031249999999 0  0.1 8.83046875 0  0.1 9.425781249999998 0  0.1 9.624218749999999 0  0.1 10.21953125 0  0.1 10.41796875 0  0.1 10.61640625 0  0.1 11.60859375 0  0.1 11.80703125 0  0.1 11.41015625 0  0.1 5.258593749999999 0  0.1 7.639843749999999 0  0.1 12.7 0  0.1 4.067968749999999 0  0.1 2.87734375 0  0.09999999999999999 2.67890625 0  0.1 3.86953125 0  0.1 1.88515625 0  0.1 0.6945312499999999 0  0.1 1.28984375 0  0.1 1.48828125 0  0.1 2.08359375 0  0.1 0 0  0.1 0.29765625 0  0.1 0.8929687499999999 0  0.09999999999999999 1.09140625 0  0.1 0.4960937499999999 0  0.1 7.242968749999999 0  0.1 4.861718749999999 0  0.1 5.060156249999999 0  0.1 4.464843749999999 0  0.1 4.663281249999999 0  0.09999999999999999 3.47265625 0  0.1 6.846093749999999 0  0.1 7.044531249999999 0  0.1 6.449218749999999 0  0.1 6.647656249999999 0  0.09999999999999999 6.250781249999999 0  0.1 6.05234375 0  0.09999999999999996 1.68671875 0  0.1 4.266406249999999 0  0.1 3.07578125 0  0.09999999999999999 2.28203125 0  0.09999999999999996 2.48046875 0  0.1 3.671093749999999 0  0.1 3.27421875 0  0.09999999999999999 5.457031249999999 0  0.09999999999999996 5.65546875 0  0.09999999999999999 7.441406249999999 0  0.09999999999999999 7.838281249999999 0  0.09999999999999996 8.036718749999999 0  0.1 11.21171875 0  0.1 11.01328125 0  0.1 10.02109375 0  0.1 8.43359375 0  0.1 9.227343749999999 0  0.1 9.02890625 0  0.1 9.82265625 0  0.1 12.40234375 0  0.1 12.20390625 0  0.1 12.5755843996063 0  0 0.09921874999999999 0  0.2 0.09921874999999999 0  0.09999999999999999 0.148828125 0  0.09922180175781284 7.143749999999999 0  0 7.639843749999999 0  0.2 7.639843749999999 0  0 5.258593749999999 0  0.1007781982421872 5.159374999999999 0  0.2 5.258593749999999 0  0.09922180175781285 11.90625 0  0.09922180175781285 11.509375 0  0.1007781982421872 11.7078125 0  0 11.41015625 0  0 11.60859375 0  0.2 11.41015625 0  0.2 11.60859375 0  0.09922180175781285 10.715625 0  0.1007781982421872 10.5171875 0  0.1007781982421872 10.31875 0  0 10.41796875 0  0.2 10.41796875 0  0 10.21953125 0  0.2 10.21953125 0  0.1007781982421872 9.524999999999999 0  0 9.624218749999999 0  0.2 9.624218749999999 0  0 9.425781249999998 0  0.2 9.425781249999998 0  0.1007781982421872 5.953125 0  0.09922180175781285 8.135937499999999 0  0.1007781982421872 8.731249999999999 0  0 8.83046875 0  0.2 8.83046875 0  0 8.632031249999999 0  0.2 8.632031249999999 0  0.2 8.235156249999999 0  0 8.235156249999999 0  0.2 5.85390625 0  0 5.85390625 0  0 11.80703125 0  0 12.00546875 0  0.2 11.80703125 0  0.2 12.00546875 0  0 10.61640625 0  0 10.81484375 0  0.2 10.61640625 0  0.2 10.81484375 0  0.09922180175781287 5.556249999999999 0  0.1007781982421872 11.1125 0  0.09922180175781285 8.334375 0  0.09922180175781285 8.9296875 0  0.09922180175781285 9.723437499999999 0  0.2 12.60078125 0  0 12.60078125 0  0.1007781982421874 1.984375 0  0.1007781982421874 1.3890625 0  0 2.67890625 0  0 2.87734375 0  0.1007781982421874 2.5796875 0  0.2 2.67890625 0  0.2 2.87734375 0  0 3.86953125 0  0 4.067968749999999 0  0.1007781982421874 3.7703125 0  0.2 3.86953125 0  0.2 4.067968749999999 0  0.09922180175781263 2.9765625 0  0 2.08359375 0  0.2 2.08359375 0  0.2 1.48828125 0  0 1.48828125 0  0 1.28984375 0  0.2 1.28984375 0  0 0.6945312499999999 0  0.2 0.6945312499999999 0  0.2 1.88515625 0  0 1.88515625 0  0.09922180175781251 0.9921874999999999 0  0.1007781982421875 0.5953124999999999 0  0 0.29765625 0  0.2 0.29765625 0  0.1007781982421875 0.396875 0  0 0.4960937499999999 0  0.2 0.4960937499999999 0  0.2 1.09140625 0  0 1.09140625 0  0.1007781982421876 0.7937499999999998 0  0 0.8929687499999999 0  0.2 0.8929687499999999 0  0.1007781982421876 7.937499999999998 0  0 8.036718749999999 0  0.2 8.036718749999999 0  0 7.83828125 0  0.2 7.83828125 0  0.1007781982421876 7.739062499999999 0  0.09922180175781239 7.540624999999999 0  0.2 7.441406249999998 0  0.09922180175781239 7.3421875 0  0 7.441406249999998 0  0 5.655468749999999 0  0.09922180175781239 5.754687499999999 0  0.2 5.655468749999999 0  0 5.45703125 0  0.2 5.45703125 0  0.1007781982421876 5.3578125 0  0.1007781982421876 3.175 0  0.09922180175781241 3.571874999999999 0  0 3.671093749999999 0  0.2 3.671093749999999 0  0.1007781982421876 2.38125 0  0 2.48046875 0  0.2 2.48046875 0  0 2.28203125 0  0.2 2.28203125 0  0.1007781982421876 2.1828125 0  0 3.07578125 0  0.09922180175781242 1.5875 0  0 1.68671875 0  0.09922180175781239 1.7859375 0  0.2 1.68671875 0  0 6.05234375 0  0 6.250781249999999 0  0 6.44921875 0  0.2 6.05234375 0  0.2 6.250781249999999 0  0.1007781982421876 6.349999999999999 0  0.2 6.44921875 0  0.1007781982421876 6.548437499999999 0  0.09922180175781242 6.746874999999999 0  0.1007781982421876 6.945312499999998 0  0 6.647656249999999 0  0 6.84609375 0  0.2 6.647656249999999 0  0.2 6.84609375 0  0 3.27421875 0  0 3.47265625 0  0.2 3.07578125 0  0.2 3.27421875 0  0.1007781982421876 3.3734375 0  0.2 3.47265625 0  0.09922180175781244 4.167187499999999 0  0 4.266406249999999 0  0 4.46484375 0  0.2 4.266406249999999 0  0.1007781982421876 4.365625 0  0.2 4.46484375 0  0 5.060156249999999 0  0.2 5.060156249999999 0  0.1007781982421876 4.564062499999999 0  0.09922180175781242 4.762499999999999 0  0.1007781982421876 4.960937499999998 0  0 4.663281249999999 0  0 4.86171875 0  0.2 4.663281249999999 0  0.2 4.86171875 0  0.2 7.044531249999999 0  0.2 7.242968749999999 0  0 7.044531249999999 0  0 7.242968749999999 0  0.09922180175781239 1.190625 0  0.09922180175781241 3.96875 0  0.09922180175781241 2.778125 0  0.09922180175781195 12.303125 0  0.100778198242188 12.1046875 0  0 12.20390625 0  0 12.40234375 0  0.2 12.20390625 0  0.2 12.40234375 0  0 9.028906249999999 0  0 9.227343749999999 0  0.09922180175781198 9.128125000000001 0  0.09922180175781198 9.3265625 0  0.2 9.028906249999999 0  0.2 9.227343749999999 0  0 8.43359375 0  0.09922180175781198 8.5328125 0  0.2 8.43359375 0  0 9.822656249999998 0  0 10.02109375 0  0.09922180175781198 9.921875 0  0.09922180175781198 10.1203125 0  0.2 9.822656249999998 0  0.2 10.02109375 0  0.09922180175781196 10.9140625 0  0 11.01328125 0  0 11.21171875 0  0.09922180175781198 11.3109375 0  0.2 11.01328125 0  0.2 11.21171875 0  0.09922180175781198 6.1515625 0  0.08672180175781248 12.48896407480315 0  0.07461090087890626 0.2232421875 0  0.1253890991210938 0.0744140625 0  0.05038909912109379 4.3164077878937 0  0.1496109008789064 5.605467212106299 0  0.1496109008789064 8.0867202878937 0  0.05038909912109358 5.1101577878937 0  0.05038909912109338 4.514845287893699 0  0.05038909912109338 6.896095287893699 0  0.05038909912109338 6.499220287893699 0  0.05000000000000002 6.002734375 0  0.05000000000000002 3.819921874999999 0  0.1496109008789064 5.5070327878937 0  0.1499999999999996 7.391796874999998 0  0.05038909912109338 4.911720287893699 0  0.1496109008789069 9.971092212106297 0  0.1496109008789069 9.177342212106298 0  0.05038909912109314 12.0554702878937 0  0.149610900878906 12.2539077878937 0  0.05 12.7 0  0.1374999999999996 12.63779219980315 0  0.1496109008789064 9.772654712106299 0  0.1496109008789064 9.6742202878937 0  0.1496109008789064 8.978904712106299 0  0.1496109008789064 8.880470287893701 0  0.1496109008789064 8.383592212106299 0  0.1496109008789064 
[...]
<PointData  Scalars="sigma (Pa)"> 
<DataArray  type="Float64"  Name="sigma (Pa)"  format="ascii">4.7708258514368919e-02  4.6316838133966753e-02  -4.2103157856235390e-02  -4.6018943498601243e-02  -1.9589633831742163e-05  1.6582390888787232e-08  6.4927593124436065e-08  -5.9111699274939859e-07  5.2869167127243838e-07  3.0153662116354788e-07  -8.7170574520679752e-07  -3.4470566480864785e-06  3.4727771804791311e-07  -4.1327655932256176e-07  1.0100974670485100e-07  9.0155293404531256e-08  -5.1857849347627720e-06  -2.2625097791992869e-06  -6.2398081246558827e-08  -5.6606227995842325e-09  1.0287264099136063e-06  8.7054091876830701e-07  3.1842772021134834e-07  -2.4577962112428130e-04  -2.7821189465162995e-07  3.3978382862967609e-07  6.8495412631505312e-08  -5.3329648430114064e-07  -1.2663830207266578e-04  2.4040953857030711e-07  -1.0950998941277302e-06  -3.0900054257445734e-08  -1.7636351766674089e-06  -2.8594781332066295e-07  5.3719950961439877e-07  1.9791206764583637e-06  7.6452685150938411e-08  -1.4178498771518090e-08  1.1069375619703696e-05  -9.2255812179328821e-04  -2.4602111550710470e-07  -1.2860563448753684e-06  8.1741359303624870e-04  -1.9062897709247485e-05  -5.7986158937964484e-05  5.8337979005902006e-08  3.4172413765785888e-07  -3.2112929655278435e-07  8.6054066561280081e-08  -1.6762536121036781e-07  -2.2806778157581501e-07  -2.9851197365249256e-07  -5.5829076814563720e-08  6.3834973400408459e-07  -1.8470417361655889e-07  -8.0861517229167167e-08  -6.2677643594862993e-07  -7.6834798345856279e-08  3.4259523324947252e-05  5.9823927179418820e-10  1.9211119906230820e-08  3.1077492013569402e-07  4.5560462414588191e-08  5.9558678710277929e-07  4.4067743805790515e-07  2.0672848569537775e-06  4.9457695117231205e-07  -5.0379393028839667e-07  3.6157724497661411e-07  -1.2688881553450352e-06  -1.0135815414865035e-06  -3.1383132433220427e-06  -1.1894857641502639e-04  4.5040562635275660e-07  1.8652048048036450e-06  -8.6789649775358677e-04  -4.5895040477627682e-06  2.9655263259777256e-04  -3.0283726899460977e-07  6.4243996904852707e-07  -1.5688704259950656e-07  1.4241260225130002e-06  1.1308485475083094e-06  3.3156644383860593e-07  9.4059530327795013e-08  -1.0353005925318010e-07  -2.2209287466531208e-07  9.4562860862221125e-07  7.1556041258849683e-07  1.5220694303401253e-06  -2.6980817966493713e-07  2.3153670278068043e-07  -4.8582732319064793e-07  -1.1175080989761793e-07  9.5897520408109567e-07  -4.8025667429210010e-07  1.7753148755479235e-08  5.3319576803306460e-07  -3.6823575910602200e-08  2.2023827481858858e-07  -2.8693343524086669e-07  5.7813580617686005e-07  -8.4930879610560227e-08  5.1398905617658866e-07  5.5598896833430723e-07  3.7552604067898797e-07  2.6474265747841763e-07  -7.8675410676687482e-07  -5.6282942346319515e-08  -2.0065126340940970e-05  -1.7332999459577789e-07  -6.1996941633155910e-05  4.3927585950962072e-07  1.3985744724289383e-07  2.3320193626862385e-07  -5.0416707645679108e-07  1.1681428870441727e-07  2.3675830403080930e-05  -3.0275745268476157e-07  -1.5833588544636624e-06  -1.8734857277613652e-06  -5.7657669304234869e-06  -2.6105589118617607e-04  -4.6451502054417178e-07  2.9054585484618603e-07  -8.2693510971441084e-07  3.2500151487595262e-08  1.8473522385872331e-08  -1.6710206226044686e-06  4.3011827809167008e-07  -6.2391155883691553e-07  1.8386612455595083e-07  -2.2132931474851448e-05  -8.7270838752555425e-07  2.7867089016238198e-07  4.3988411133594976e-07  -9.9003578578395731e-07  2.5081423119027661e-08  -4.9982363088542379e-07  9.4606374727632896e-07  2.4009809759554773e-08  -5.6819764472624154e-07  2.1409325672384033e-07  -1.0724328135575851e-07  -1.0404349941937796e-03  -1.1353743884238538e-03  1.0378918424153089e-04  -1.0781914421231726e-06  2.8923041245290514e-07  -7.1141493736217980e-07  -7.6461612631644005e-08  1.2149825330732723e-07  -9.8949478420751052e-07  7.7636841485849635e-07  -5.3770340676033735e-07  -1.8426579505771112e-07  2.8053760896039033e-04  1.2609875162519130e-06  -6.0119131417268461e-07  1.0332104353103634e-06  -2.5354928394752381e-07  -5.3247192250233996e-05  -2.0424003035941100e-05  1.8129442860327408e-03  1.1666117621718626e-06  4.9132505005419072e-07  -1.2877545818296835e-06  -1.3333793002613175e-05  -2.4104233491572836e-05  -5.0086222109700438e-06  -8.3950127657455276e-06  -7.7964710852043940e-06  -1.2422447363299760e-05  -1.0347324026675439e-06  2.7281175509697392e-08  -5.6675270151178818e-07  1.0123329338855881e-07  9.4133243377827048e-08  4.6316424274059691e-07  1.5486769198318515e-06  -1.5247335669447195e-04  -4.5840408212639440e-05  -1.6269428090137690e-04  1.9454184584088282e-03  -1.8825065098737104e-05  4.3991776096133222e-07  -7.7394736107735695e-07  -7.4444354426795824e-07  2.0035655435293430e-07  -4.9620331520803306e-07  3.1263554762868412e-07  7.9123862597710362e-07  3.2034609623058212e-06  -9.9528758172374579e-08  -6.2221861794201506e-06  1.0225898864716458e-05  3.6649912022372591e-06  -4.5166826671056667e-06  -3.5351810462044103e-05  2.2812215627702181e-05  -1.5102401024255632e-03  -5.2053868633264190e-06  8.9161428096903950e-05  -1.3814433636382829e-03  -5.8634644853266232e-07  2.6690277167487306e-07  -2.6035992036949055e-07  -1.0656991367346650e-06  1.8917394448400842e-07  2.2520577994335132e-07  1.0001980514727304e-07  -1.3149316079461823e-06  3.2201955435490034e-07  -8.5039092833824944e-07  1.4813515165830825e-06  -3.2207999746198985e-07  -1.3012192351985417e-06  -4.8287551547816680e-07  1.4006814925713311e-06  -1.1178760907218975e-07  1.1409173067474094e-07  7.9081588545350275e-07  1.4716742974966548e-07  -1.6695028513349659e-05  -3.0647354752493933e-06  1.6252097019598934e-07  8.6903903151256080e-07  -8.4048500825936040e-07  2.0103358416805925e-07  -2.3451094157670757e-07  -5.0608541871053915e-07  -5.7937061784010829e-07  -8.1901420563792329e-05  4.4000698428268230e-08  -1.9813067781567149e-06  -3.0364733660897335e-07  5.6114258341658246e-07  -3.7801590012153975e-08  7.2396233753155069e-07  -1.4203003281458486e-06  4.9087493660962417e-08  3.0140070239057883e-08  -5.3567179057597882e-05  -2.2620242291042317e-07  -5.0637700439922976e-07  -3.2851750125986623e-07  -1.3332083634277918e-06  3.6400904035503793e-06  4.2523470184826614e-06  9.3139463088642018e-07  1.6245929057134462e-06  4.0853484121311116e-08  1.2507227389250460e-06  1.5178809050121818e-06  1.3157797715727202e-06  -7.2535261017178013e-09  2.8299753646989522e-07  -2.2634162708994143e-07  1.3939887954570023e-06  -8.6518852573531171e-08  -1.5373275655392318e-06  -1.4206377500286837e-07  -8.2138221531586256e-07  7.8803266821670601e-07  8.0766615549688155e-07  1.2533483827474470e-06  -3.3084486140796296e-07  3.6394437753981387e-08  -5.3722709537147111e-07  -4.1859796367816488e-07  4.0983740698125171e-07  -1.4407098046548338e-06  -3.2621996792268199e-07  5.2324944392070391e-08  -2.8842458847351106e-07  2.1013553170438322e-06  9.5685850179143690e-07  1.4770575753338794e-06  3.4152620186000203e-07  9.8085188977081424e-07  -2.8374297336322924e-08  7.2128403277053695e-07  6.1175893481085799e-07  -1.3194280775849335e-07  1.7053081793260344e-04  -2.5146466184764246e-07  1.9605444320556879e-07  -1.8618827265690728e-05  -4.7810293015030644e-04  7.8253481966399243e-05  -4.9993434958515070e-04  -4.8057636867151652e-04  -5.3750831098776407e-05  -4.8732434109443101e-07  -2.8057827402638944e-07  -3.3847682750499674e-05  -4.9449707899666055e-04  9.9563816133513440e-07  -4.4827273575711798e-04  -4.7839616111165518e-04  8.8757953338031934e-07  -5.5463192258090940e-07  5.2432831190464516e-07  -7.7966728288489898e-08  1.0089459962811823e-07  -6.7360395237732092e-07  5.1803647386166969e-07  -3.0908350180432089e-07  -2.5133608775711775e-10  8.2772920776382011e-07  -1.7015856613066605e-07  4.7099961014208092e-07  4.5205441243006234e-07  8.4122455409777578e-07  1.5809590236486454e-06  -1.3816147040009908e-07  -4.7469022737889101e-09  3.1212766266883440e-08  -4.1740530226228507e-05  -2.5273450075306123e-05  -5.5426420880266641e-06  -1.8293625077419152e-05  -5.6988755200921147e-06  -6.4735733570533741e-06  -1.8057222436246302e-05  8.2688215142222514e-08  1.0653884706458772e-08  -2.6041454999279641e-05  -4.5080745273922317e-05  -5.1961046765832399e-07  -2.4349631873120253e-07  3.5010352744633927e-07  4.0383391674307199e-07  3.5398626712521267e-07  9.3641275022682476e-07  4.1177456544801790e-08  2.0385289234609261e-06  2.3654433272086492e-07  -2.7669284406055308e-07  -2.3614077338654687e-07  7.3347895575007663e-07  -2.1008768864262177e-05  -3.6593839364074772e-04  1.7460949683461619e-06  -4.9979604285213381e-06  1.4477371695310052e-04  -3.8159642102693926e-07  -1.2563008987828622e-06  1.0732152686339695e-06  8.2271215783113099e-07  -8.7782296279117377e-05  8.0606227977580579e-04  1.6272232961101716e-07  -9.1394406443639999e-08  1.0837010471757263e-07  1.5499550375375251e-07  1.1906455093096876e-06  -6.5438295060144233e-07  9.6668091135038163e-07  -1.5643071967191685e-06  -2.7638574189089022e-06  -1.6592812245866511e-07  4.1034669573459371e-07  3.3712428446025178e-07  -7.5255466836114255e-07  -7.1766761293503423e-07  -1.0266570223873310e-07  4.6495234745850924e-07  8.4681508550878386e-07  -2.3467255608448835e-06  -4.5694934989549567e-07  2.4843740153805297e-07  4.4327542055082393e-07  -3.8295623039738627e-08  -4.9897966854826224e-07  3.7897506901069091e-08  1.3264700102111191e-07  1.7639781684132544e-06  -9.8089432618895056e-07  -2.3959017332699833e-06  -3.9158677723428739e-07  1.4087098183325101e-08  1.2105297164149063e-07  2.6901383903608143e-07  -6.3233913796644343e-06  -6.1574697676679169e-06  -4.3581031738819386e-06  8.5382950222277060e-05  1.3968685870479626e-06  -4.4561514731318816e-05  -6.4227186911179913e-06  5.1873653074691647e-04  4.1208094984436932e-07  -4.2593105267840462e-06  -1.3303097513373685e-06  -3.7473222676153386e-06  6.0900626185961272e-07  -1.9736234762828681e-04  -2.1440805972463770e-04  -3.3593551172019876e-07  8.6207049820382662e-07  -4.8436205081783197e-07  -3.8810014976351428e-07  1.5339813144462147e-07  8.2421844161267976e-03  -3.0108422505355511e-05  8.2722405648283717e-07  -2.2971994890155650e-07  -1.1861724847959746e-07  -1.0627126074616081e-06  3.0532848373728167e-07  -1.6079151263165696e-06  3.3472799161074929e-07  7.5187552521081348e-07  3.2076437439685606e-07  -1.2603140323508265e-06  -5.2858082412439537e-07  -4.2283327968534666e-08  -2.9042535082576607e-07  -4.7478495740348361e-06  -5.7014069095093931e-05  4.9229940577467781e-08  2.3041931531348162e-07  3.3577288339094665e-07  6.7684209351638023e-07  1.1297040883281710e-06  -8.0485657714934657e-07  -8.8502797193737021e-07  -1.2595466831593028e-06  -1.5938944632484966e-07  1.5421140920060301e-06  -3.5668559168617625e-07  3.0432811626268357e-07  -2.6399551322577479e-07  8.9830820738923478e-07  -1.4555846423872520e-07  3.5054065091866673e-07  -8.1201944391425584e-07  -3.2035085174267938e-04  -2.6842554866052216e-04  -1.2053253030067193e-03  -3.3916037020083442e-04  -1.0456900605092815e-06  -4.0677979034543250e-07  3.0335317849327790e-04  -6.7243922884816883e-07  -3.7221627701018313e-09  -9.4273519510470853e-05  -1.7122039388944844e-06  -6.1671004776819741e-05  -1.0594716475917575e-06  -2.0537446126242753e-05  -7.4334545377310758e-07  -1.0728540702937019e-06  8.2457778221791107e-07  7.3113266273459258e-07  -8.4077403640498711e-07  1.7660243116745922e-07  6.3063626235655119e-07  -2.6421577277153466e-07  4.4115042418084096e-07  7.1279880133194480e-03  1.8689421317452845e-07  1.3616856080378299e-06  2.5009838597553951e-07  6.2664068304732325e-07  5.1543589234406535e-07  -4.5979979263596707e-07  -1.4730998917185798e-07  4.7789739194793921e-07  1.8149804151416516e-07  -8.0205911879502518e-07  1.0041669493922382e-06  -5.0929310683845252e-07  -4.9193973391475697e-08  2.3589150615075306e-07  1.4369762978433683e-06  7.5007438137868435e-07  7.4980849221195602e-07  4.5188798580279655e-07  -6.1598830773612558e-07  -7.6457471685066241e-07  1.0288272441983236e-07  -1.2371676284888404e-06  -8.5177449152119467e-07  -5.5976834197429018e-07  2.7034652469108187e-07  5.8566824524856152e-08  6.6037285442006921e-07  -5.3583479521843791e-06  2.8686158654927799e-07  2.7976323993401014e-04  -1.7763918325899263e-06  -9.3080679022307969e-05  7.3832990795767414e-07  -1.3539890578162794e-06  -4.8642855828650276e-04  -1.9022717961071476e-05  -2.2625350597390022e-05  -3.4892855299978917e-05  -6.9445478662416661e-06  -2.4066421966446139e-05  -8.1500680113645783e-05  5.7249971712206222e-04  -6.5618725387711351e-07  -2.0726449128414671e-07  1.0852003045830418e-06  -1.4470257149994182e-06  -6.0078567330749874e-07  1.6477823340098103e-06  -1.4758495576439293e-06  7.0779557699529417e-07  9.7848394113101558e-07  -4.8825102596908961e-07  -3.3626146790260868e-08  1.1143699559596045e-06  -7.4039104344315943e-07  -1.1032619037783850e-05  -1.2627450010294508e-06  -8.5700649438660506e-07  -8.9147718091957438e-08  -2.9995844635789465e-05  -5.5798865381536965e-06  7.4313148461853495e-08  5.1097283154831934e-07  -4.6294806070920682e-07  1.6024188272096789e-06  3.4177279741216796e-08  -4.0425792312118805e-07  1.1251601214146571e-06  7.1029270923655899e-08  1.9094472943403442e-07  -4.1261928202817142e-05  -1.0850256383941848e-06  1.3436024989290687e-07  2.8411688590566511e-07  1.4978682765941045e-06  8.2053091856972976e-07  1.4303941439814081e-06  5.3450400306690654e-07  2.4403772041477562e-07  -1.7394520509050006e-07  -1.8016936918219474e-07  1.1305524047145193e-06  -1.6195433392310957e-03  4.8076868155529718e-03  -1.2863304536058323e-05  -7.2326411777703483e-06  -1.7283217252474142e-07  4.6854842048783569e-07  -2.5767884911494811e-07  -1.0698836745684586e-06  -5.5849144326684771e-06  -1.2482526414381318e-06  -2.4628746648028739e-06  -2.0196392921407162e-06  -7.4860575073319805e-06  -4.4212877685049716e-05  1.7308081495124598e-07  5.3275025752806443e-04  6.5388089001945775e-07  7.7443667776512847e-07  -1.3345173929059953e-05  -4.5204249543931766e-04  -1.1286571867959371e-03  -6.8586523835066882e-06  -1.1992279291817354e-05  -8.8599405142567888e-05  -2.7781471382569612e-04  -1.7729824839072563e-03  -4.8119285547917720e-07  6.2741702017109921e-07  2.1053535220971369e-07  8.9108280927393674e-07  5.2534968953478417e-03  -7.0821856349684355e-06  2.6703089701445589e-07  7.3659491846532502e-07  2.7700611354268400e-07  -4.6885642758871769e-07  3.1384583136218360e-07  7.5264708022632477e-07  4.7386991693392506e-08  -8.4772214513276831e-07  -7.7210623546020734e-07  4.3640497829339561e-07  5.4277072998552488e-07  -2.6153477416396166e-06  8.7067221075551450e-07  2.5499425299091547e-07  -6.9637619634766516e-07  -2.6708526196838106e-07  -2.8909809170364533e-07  -8.1370411138902320e-07  -2.1689278707492857e-05  -6.1790218905913044e-06  -5.2137454235304415e-07  -5.1372493342116275e-07  -4.1427139595188334e-07  -4.4489867149083851e-07  -1.7398176911681642e-06  6.7623365549970241e-07  -1.1580437163807332e-06  6.8376776745681926e-07  -2.8335235502025475e-07  -8.7853310658488415e-07  1.1787612449688242e-07  -4.0846116258262380e-07  -4.4169063926299285e-07  -5.3997631838961650e-07  8.3098017908740380e-07  1.1230844387790035e-06  6.2936710855944871e-07  4.0984189793238922e-07  6.6894575726805780e-07  -5.7204781857982011e-07  1.9836865215078999e-06  -1.6159274036703295e-07  -1.3035525187146623e-05  -1.8441026839864325e-06  -2.3702085194206563e-06  -3.8109271892037435e-07  -1.2134859203334768e-08  -8.5383623369932851e-06  3.2361115477498981e-07  -3.2586693052941157e-05  -1.1251815443023912e-05  -2.3749808532445442e-05  5.4514251349354497e-04  -5.8595307068705108e-07  -4.5018555380037816e-07  -3.8356201718245390e-07  1.5145198468127354e-07  6.6111275379973879e-08  -6.5361465153433832e-07  8.9846105481861660e-07  1.1099737301010948e-06  8.6096744841894688e-05  -1.3232169531286904e-04  -3.3736633205195922e-05  1.5553694982528400e-05  1.3167865642031397e-06  4.4752754212277246e-06  -1.3195760569222751e-06  7.8774288267956751e-06  3.2322503913079124e-05  -7.9018572105645743e-05  -6.7600955276029958e-03  -2.0496111276456435e-05  1.3734119357856855e-07  5.9398561045729588e-07  8.5585235266252729e-05  1.2196605701205194e-04  4.7547451601917713e-04  2.9075336772634909e-07  5.7327714346058127e-04  -1.2622529741786687e-06  -2.4773650426461520e-07  -7.4571187983696443e-03  2.1663277319081469e-07  -5.3584559043028448e-08  -9.5611008004451410e-07  -1.0161937123644571e-06  -1.3502168073272649e-07  -2.7966203624938014e-07  8.3483525682598325e-07  1.5116852913199582e-06  -3.1789517981095754e-07  2.2169519273365590e-07  -1.6836849797290053e-07  -1.2344168866795954e-05  -3.6067990847546310e-06  9.5960699733639380e-07  -2.9263281702650489e-08  -3.6922412527282534e-04  -1.4762001324539553e-04  5.5336916186774779e-07  -3.8934038900209376e-07  7.4841966556118567e-07  -5.7415773503648249e-07  1.2652197356141672e-06  -9.7367463801605021e-07  4.4357245644959583e-07  -1.3326076208215528e-04  -6.3886356695026160e-07  2.8062039449689021e-07  -1.2886659359604980e-07  6.2108277259018043e-04  -2.6167933980568566e-05  -1.8223554483520800e-07  2.6975537408095846e-07  -2.5616801557121270e-07  1.2949240728829820e-08  7.4881617168009147e-07  4.2647177207761331e-08  -3.5436890128256109e-07  -6.6478112387842208e-07  5.0794048020510450e-07  -2.7332605819556299e-07  -2.8776162975414910e-04  -1.6959031843927817e-06  -1.3110816404870977e-05  -1.5638414924239112e-07  -1.0786123146526687e-06  -1.0134616684938885e-05  8.9134297169034664e-07  9.6256170586602237e-07  2.6102891682949088e-06  1.3051788776205339e-06  7.1305116227407864e-04  -8.0444599494513840e-06  -7.8421823631438530e-07  -6.6737829263056684e-06  -2.8218823124078405e-05  -1.5888614689179669e-07  -2.5639086226015017e-07  -4.0331735966276383e-07  -2.0152628256010439e-07  -4.6152092778865442e-07  -4.2136581267696892e-08  3.8626535967820841e-07  -8.4831287249654966e-07  -1.2105149996491827e-05  -1.4471873713553623e-05  -1.8990691339680744e-07  -6.9355313942911088e-07  3.2947662436054348e-07  -4.0636368880048423e-07  -1.0687556151843219e-03  -3.5331566159761892e-05  2.2974514984955481e-07  -5.0836101818075090e-06  -2.0546788415164229e-05  1.3975332977266913e-06  -4.6866752808066592e-07  -4.7905473647332553e-05  -8.2276468074991512e-04  -9.6717830256723327e-04  -7.5979802948637396e-04  7.6130307103679918e-07  -8.6673732392370642e-08  1.0652923411324847e-06  1.2541329331100180e-07  -4.7959207568866470e-08  1.2112144947117820e-07  -9.8234204002002336e-07  2.0583040348904799e-07  2.5494560896144978e-07  1.4745183441926569e-07  -9.7848015507635403e-07  2.6999717604620918e-07  1.7641070622349178e-06  7.1832436140469575e-07  4.1849274577252982e-07  -2.6805203174817701e-05  -1.8783409615803417e-05  2.4476065155510077e-07  2.4094466807415364e-07  -6.4760552277357589e-07  6.3400595968171700e-07  7.9437896379525202e-07  2.8803307389274424e-07  -1.6292511957225266e-06  -1.4336923488614140e-06  3.5563031470057914e-07  7.2071871863694947e-07  -7.4619065452522833e-07  -7.6944262321337620e-07  5.5751654371705165e-07  -7.0226910481934179e-09  -2.8921906060270397e-05  -9.2083542211716382e-05  1.9003538291395082e-03  -3.3306181482084714e-06  -1.1234652283775505e-06  -8.2162243620046640e-07  -5.1997942374943241e-07  -3.5157915090703336e-05  -1.7722138789991921e-06  8.3680843793658623e-07  -3.2518484554139722e-04  -9.7658986334700156e-06  -2.6256848165441516e-07  -1.1201133314702005e-08  8.3520095511920976e-07  -1.3325197187612430e-06  1.0345489437041630e-06  1.0513085453358975e-06  8.6080128847303602e-07  7.5011583599177910e-07  4.6498358988458189e-07  1.3950426732007680e-07  9.7559631877342495e-07  -8.9995141431454537e-07  6.0718964895258841e-07  -1.4925609558907090e-06  7.1567672427991468e-07  1.6557455538603456e-06  -1.8419605324553174e-07  5.6608807659296586e-07  6.4772976491369543e-07  2.4678470828465550e-06  -3.6087914123895683e-07  -2.2400204771849947e-06  -1.6766631256487867e-06  9.1656727454788041e-07  3.4616215545676866e-07  -3.4332718011257356e-08  -9.5394015765367551e-08  5.9016288671152115e-07  -7.22987396396352